<?xml version="1.0" encoding="UTF-8"?>

<!-- generated on Wed Jul 27 00:27:45 2016 by SUMO Version 0.27.0
<?xml version="1.0" encoding="UTF-8"?>

<configuration xmlns:xsi="http://www.w3.org/2001/XMLSchema-instance" xsi:noNamespaceSchemaLocation="http://sumo.dlr.de/xsd/sumoConfiguration.xsd">

    <input>
        <net-file value="./../network/umassd.net.xml"/>
        <route-files value="./../trips/trip.xml"/>
        <additional-files value="./additional_--12814#2__0_3000.xml"/>
    </input>

    <output>
        <summary-output value="./../output/summary_--12814#2__0_3000.xml"/>
    </output>

    <processing>
        <time-to-teleport value="-1"/>
    </processing>

    <report>
        <log value="./../output/report_--12814#2__0_3000.xml"/>
    </report>

</configuration>
-->

<meandata xmlns:xsi="http://www.w3.org/2001/XMLSchema-instance" xsi:noNamespaceSchemaLocation="http://sumo.dlr.de/xsd/meandata_file.xsd">
    <interval begin="0.00" end="3000.00" id="1">
        <edge id="--12769#0" sampledSeconds="0.00" departed="0" arrived="0" entered="0" left="0" laneChangedFrom="0" laneChangedTo="0"/>
        <edge id="--12769#1" sampledSeconds="0.00" departed="0" arrived="0" entered="0" left="0" laneChangedFrom="0" laneChangedTo="0"/>
        <edge id="--12770" sampledSeconds="0.00" departed="0" arrived="0" entered="0" left="0" laneChangedFrom="0" laneChangedTo="0"/>
        <edge id="--12772" sampledSeconds="0.00" departed="0" arrived="0" entered="0" left="0" laneChangedFrom="0" laneChangedTo="0"/>
        <edge id="--12773#0" sampledSeconds="0.00" departed="0" arrived="0" entered="0" left="0" laneChangedFrom="0" laneChangedTo="0"/>
        <edge id="--12773#1" sampledSeconds="0.00" departed="0" arrived="0" entered="0" left="0" laneChangedFrom="0" laneChangedTo="0"/>
        <edge id="--12773#2" sampledSeconds="0.00" departed="0" arrived="0" entered="0" left="0" laneChangedFrom="0" laneChangedTo="0"/>
        <edge id="--12774#0" sampledSeconds="0.00" departed="0" arrived="0" entered="0" left="0" laneChangedFrom="0" laneChangedTo="0"/>
        <edge id="--12774#1" sampledSeconds="0.00" departed="0" arrived="0" entered="0" left="0" laneChangedFrom="0" laneChangedTo="0"/>
        <edge id="--12774#2" sampledSeconds="0.00" departed="0" arrived="0" entered="0" left="0" laneChangedFrom="0" laneChangedTo="0"/>
        <edge id="--12774#3" sampledSeconds="0.00" departed="0" arrived="0" entered="0" left="0" laneChangedFrom="0" laneChangedTo="0"/>
        <edge id="--12775#0" sampledSeconds="0.00" departed="0" arrived="0" entered="0" left="0" laneChangedFrom="0" laneChangedTo="0"/>
        <edge id="--12775#1" sampledSeconds="0.00" departed="0" arrived="0" entered="0" left="0" laneChangedFrom="0" laneChangedTo="0"/>
        <edge id="--12776#0" sampledSeconds="0.00" departed="0" arrived="0" entered="0" left="0" laneChangedFrom="0" laneChangedTo="0"/>
        <edge id="--12776#1" sampledSeconds="0.00" departed="0" arrived="0" entered="0" left="0" laneChangedFrom="0" laneChangedTo="0"/>
        <edge id="--12776#2" sampledSeconds="0.00" departed="0" arrived="0" entered="0" left="0" laneChangedFrom="0" laneChangedTo="0"/>
        <edge id="--12776#3" sampledSeconds="0.00" departed="0" arrived="0" entered="0" left="0" laneChangedFrom="0" laneChangedTo="0"/>
        <edge id="--12776#4" sampledSeconds="0.00" departed="0" arrived="0" entered="0" left="0" laneChangedFrom="0" laneChangedTo="0"/>
        <edge id="--12776#5" sampledSeconds="0.00" departed="0" arrived="0" entered="0" left="0" laneChangedFrom="0" laneChangedTo="0"/>
        <edge id="--12776#6" sampledSeconds="0.00" departed="0" arrived="0" entered="0" left="0" laneChangedFrom="0" laneChangedTo="0"/>
        <edge id="--12776#7" sampledSeconds="0.00" departed="0" arrived="0" entered="0" left="0" laneChangedFrom="0" laneChangedTo="0"/>
        <edge id="--12778#0" sampledSeconds="0.00" departed="0" arrived="0" entered="0" left="0" laneChangedFrom="0" laneChangedTo="0"/>
        <edge id="--12778#1" sampledSeconds="0.00" departed="0" arrived="0" entered="0" left="0" laneChangedFrom="0" laneChangedTo="0"/>
        <edge id="--12778#2" sampledSeconds="0.00" departed="0" arrived="0" entered="0" left="0" laneChangedFrom="0" laneChangedTo="0"/>
        <edge id="--12778#3" sampledSeconds="0.00" departed="0" arrived="0" entered="0" left="0" laneChangedFrom="0" laneChangedTo="0"/>
        <edge id="--12778#4" sampledSeconds="0.00" departed="0" arrived="0" entered="0" left="0" laneChangedFrom="0" laneChangedTo="0"/>
        <edge id="--12778#5" sampledSeconds="0.00" departed="0" arrived="0" entered="0" left="0" laneChangedFrom="0" laneChangedTo="0"/>
        <edge id="--12780" sampledSeconds="0.00" departed="0" arrived="0" entered="0" left="0" laneChangedFrom="0" laneChangedTo="0"/>
        <edge id="--12781#0" sampledSeconds="0.00" departed="0" arrived="0" entered="0" left="0" laneChangedFrom="0" laneChangedTo="0"/>
        <edge id="--12781#1" sampledSeconds="0.00" departed="0" arrived="0" entered="0" left="0" laneChangedFrom="0" laneChangedTo="0"/>
        <edge id="--12781#2" sampledSeconds="0.00" departed="0" arrived="0" entered="0" left="0" laneChangedFrom="0" laneChangedTo="0"/>
        <edge id="--12782" sampledSeconds="30826.42" traveltime="808.89" density="16.41" occupancy="8.20" waitingTime="27059.00" speed="0.77" departed="0" arrived="0" entered="41" left="18" laneChangedFrom="0" laneChangedTo="0"/>
        <edge id="--12784" sampledSeconds="0.00" departed="0" arrived="0" entered="0" left="0" laneChangedFrom="0" laneChangedTo="0"/>
        <edge id="--12786#0" sampledSeconds="16400.79" traveltime="258.51" density="97.22" occupancy="48.61" waitingTime="14697.00" speed="0.22" departed="67" arrived="0" entered="0" left="60" laneChangedFrom="0" laneChangedTo="0"/>
        <edge id="--12786#1" sampledSeconds="0.00" departed="0" arrived="0" entered="0" left="0" laneChangedFrom="0" laneChangedTo="0"/>
        <edge id="--12786#2" sampledSeconds="0.00" departed="0" arrived="0" entered="0" left="0" laneChangedFrom="0" laneChangedTo="0"/>
        <edge id="--12790" sampledSeconds="0.00" departed="0" arrived="0" entered="0" left="0" laneChangedFrom="0" laneChangedTo="0"/>
        <edge id="--12797" sampledSeconds="0.00" departed="0" arrived="0" entered="0" left="0" laneChangedFrom="0" laneChangedTo="0"/>
        <edge id="--12798" sampledSeconds="0.00" departed="0" arrived="0" entered="0" left="0" laneChangedFrom="0" laneChangedTo="0"/>
        <edge id="--12801#0" sampledSeconds="0.00" departed="0" arrived="0" entered="0" left="0" laneChangedFrom="0" laneChangedTo="0"/>
        <edge id="--12801#1" sampledSeconds="0.00" departed="0" arrived="0" entered="0" left="0" laneChangedFrom="0" laneChangedTo="0"/>
        <edge id="--12805" sampledSeconds="1715.90" traveltime="11.93" density="10.46" occupancy="5.23" waitingTime="0.00" speed="4.58" departed="145" arrived="0" entered="0" left="144" laneChangedFrom="0" laneChangedTo="0"/>
        <edge id="--12806" sampledSeconds="0.00" departed="0" arrived="0" entered="0" left="0" laneChangedFrom="0" laneChangedTo="0"/>
        <edge id="--12807" sampledSeconds="0.00" departed="0" arrived="0" entered="0" left="0" laneChangedFrom="0" laneChangedTo="0"/>
        <edge id="--12808" sampledSeconds="0.00" departed="0" arrived="0" entered="0" left="0" laneChangedFrom="0" laneChangedTo="0"/>
        <edge id="--12811" sampledSeconds="0.00" departed="0" arrived="0" entered="0" left="0" laneChangedFrom="0" laneChangedTo="0"/>
        <edge id="--12814#0" sampledSeconds="316.44" traveltime="1.82" density="4.43" occupancy="2.22" waitingTime="0.00" speed="13.11" departed="0" arrived="0" entered="144" left="144" laneChangedFrom="0" laneChangedTo="0"/>
        <edge id="--12814#1" sampledSeconds="317.04" traveltime="1.71" density="6.03" occupancy="3.01" waitingTime="0.00" speed="10.24" departed="0" arrived="0" entered="144" left="144" laneChangedFrom="0" laneChangedTo="0"/>
        <edge id="--12814#10" sampledSeconds="4000.42" traveltime="20.55" density="4.91" occupancy="2.46" waitingTime="0.00" speed="13.22" departed="0" arrived="0" entered="192" left="190" laneChangedFrom="0" laneChangedTo="0"/>
        <edge id="--12814#11" sampledSeconds="4785.33" traveltime="24.76" density="5.32" occupancy="2.66" waitingTime="0.00" speed="12.11" departed="139" arrived="0" entered="55" left="192" laneChangedFrom="0" laneChangedTo="0"/>
        <edge id="--12814#12" sampledSeconds="980.65" traveltime="17.45" density="1.42" occupancy="0.71" waitingTime="0.00" speed="13.21" departed="0" arrived="0" entered="55" left="55" laneChangedFrom="0" laneChangedTo="0"/>
        <edge id="--12814#13" sampledSeconds="738.37" traveltime="13.03" density="1.51" occupancy="0.75" waitingTime="0.00" speed="12.55" departed="0" arrived="0" entered="55" left="55" laneChangedFrom="0" laneChangedTo="0"/>
        <edge id="--12814#14" sampledSeconds="240.91" traveltime="14.65" density="0.44" occupancy="0.22" waitingTime="0.00" speed="12.35" departed="0" arrived="0" entered="16" left="16" laneChangedFrom="0" laneChangedTo="0"/>
        <edge id="--12814#15" sampledSeconds="0.00" departed="0" arrived="0" entered="0" left="0" laneChangedFrom="0" laneChangedTo="0"/>
        <edge id="--12814#16" sampledSeconds="0.00" departed="0" arrived="0" entered="0" left="0" laneChangedFrom="0" laneChangedTo="0"/>
        <edge id="--12814#2" sampledSeconds="0.00" departed="0" arrived="0" entered="0" left="0" laneChangedFrom="0" laneChangedTo="0"/>
        <edge id="--12814#3" sampledSeconds="7233.85" traveltime="11.22" density="26.80" occupancy="13.40" waitingTime="625.00" speed="8.02" departed="0" arrived="0" entered="612" left="610" laneChangedFrom="0" laneChangedTo="0"/>
        <edge id="--12814#4" sampledSeconds="3128.43" traveltime="5.27" density="14.95" occupancy="7.48" waitingTime="0.00" speed="13.22" departed="0" arrived="0" entered="554" left="553" laneChangedFrom="0" laneChangedTo="0"/>
        <edge id="--12814#5" sampledSeconds="3644.61" traveltime="6.18" density="15.19" occupancy="7.60" waitingTime="0.00" speed="12.94" departed="0" arrived="0" entered="556" left="554" laneChangedFrom="0" laneChangedTo="0"/>
        <edge id="--12814#6" sampledSeconds="827.67" traveltime="1.41" density="14.93" occupancy="7.46" waitingTime="0.00" speed="13.11" departed="0" arrived="0" entered="462" left="462" laneChangedFrom="0" laneChangedTo="0"/>
        <edge id="--12814#7" sampledSeconds="913.80" traveltime="1.55" density="16.75" occupancy="8.37" waitingTime="0.00" speed="11.72" departed="0" arrived="0" entered="462" left="462" laneChangedFrom="0" laneChangedTo="0"/>
        <edge id="--12814#8" sampledSeconds="1991.04" traveltime="5.60" density="8.97" occupancy="4.49" waitingTime="0.00" speed="13.21" departed="0" arrived="0" entered="333" left="333" laneChangedFrom="0" laneChangedTo="0"/>
        <edge id="--12814#9" sampledSeconds="3170.49" traveltime="9.11" density="9.14" occupancy="4.57" waitingTime="0.00" speed="12.70" departed="0" arrived="0" entered="334" left="333" laneChangedFrom="0" laneChangedTo="0"/>
        <edge id="--12816" sampledSeconds="72654.74" traveltime="1393.98" density="93.15" occupancy="46.58" waitingTime="66108.00" speed="0.19" departed="69" arrived="0" entered="0" left="35" laneChangedFrom="0" laneChangedTo="0"/>
        <edge id="--12817#0" sampledSeconds="265.29" traveltime="265.44" density="0.49" occupancy="0.24" waitingTime="249.00" speed="0.69" departed="0" arrived="0" entered="1" left="0" laneChangedFrom="0" laneChangedTo="0"/>
        <edge id="--12817#1" sampledSeconds="0.00" departed="0" arrived="0" entered="0" left="0" laneChangedFrom="0" laneChangedTo="0"/>
        <edge id="--12817#2" sampledSeconds="0.00" departed="0" arrived="0" entered="0" left="0" laneChangedFrom="0" laneChangedTo="0"/>
        <edge id="--12820#0" sampledSeconds="28.54" traveltime="28.16" density="0.03" occupancy="0.01" waitingTime="0.00" speed="13.18" departed="0" arrived="0" entered="1" left="1" laneChangedFrom="0" laneChangedTo="0"/>
        <edge id="--12820#1" sampledSeconds="0.00" departed="0" arrived="0" entered="0" left="0" laneChangedFrom="0" laneChangedTo="0"/>
        <edge id="--12821" sampledSeconds="0.00" departed="0" arrived="0" entered="0" left="0" laneChangedFrom="0" laneChangedTo="0"/>
        <edge id="--12823#0" sampledSeconds="0.00" departed="0" arrived="0" entered="0" left="0" laneChangedFrom="0" laneChangedTo="0"/>
        <edge id="--12823#1" sampledSeconds="0.00" departed="0" arrived="0" entered="0" left="0" laneChangedFrom="0" laneChangedTo="0"/>
        <edge id="-12769#0" sampledSeconds="0.00" departed="0" arrived="0" entered="0" left="0" laneChangedFrom="0" laneChangedTo="0"/>
        <edge id="-12769#1" sampledSeconds="0.00" departed="0" arrived="0" entered="0" left="0" laneChangedFrom="0" laneChangedTo="0"/>
        <edge id="-12770" sampledSeconds="0.00" departed="0" arrived="0" entered="0" left="0" laneChangedFrom="0" laneChangedTo="0"/>
        <edge id="-12772" sampledSeconds="0.00" departed="0" arrived="0" entered="0" left="0" laneChangedFrom="0" laneChangedTo="0"/>
        <edge id="-12773#0" sampledSeconds="0.00" departed="0" arrived="0" entered="0" left="0" laneChangedFrom="0" laneChangedTo="0"/>
        <edge id="-12773#1" sampledSeconds="0.00" departed="0" arrived="0" entered="0" left="0" laneChangedFrom="0" laneChangedTo="0"/>
        <edge id="-12773#2" sampledSeconds="0.00" departed="0" arrived="0" entered="0" left="0" laneChangedFrom="0" laneChangedTo="0"/>
        <edge id="-12774#0" sampledSeconds="0.00" departed="0" arrived="0" entered="0" left="0" laneChangedFrom="0" laneChangedTo="0"/>
        <edge id="-12774#1" sampledSeconds="0.00" departed="0" arrived="0" entered="0" left="0" laneChangedFrom="0" laneChangedTo="0"/>
        <edge id="-12774#2" sampledSeconds="0.00" departed="0" arrived="0" entered="0" left="0" laneChangedFrom="0" laneChangedTo="0"/>
        <edge id="-12774#3" sampledSeconds="0.00" departed="0" arrived="0" entered="0" left="0" laneChangedFrom="0" laneChangedTo="0"/>
        <edge id="-12775#0" sampledSeconds="0.00" departed="0" arrived="0" entered="0" left="0" laneChangedFrom="0" laneChangedTo="0"/>
        <edge id="-12775#1" sampledSeconds="0.00" departed="0" arrived="0" entered="0" left="0" laneChangedFrom="0" laneChangedTo="0"/>
        <edge id="-12776#0" sampledSeconds="0.00" departed="0" arrived="0" entered="0" left="0" laneChangedFrom="0" laneChangedTo="0"/>
        <edge id="-12776#1" sampledSeconds="0.00" departed="0" arrived="0" entered="0" left="0" laneChangedFrom="0" laneChangedTo="0"/>
        <edge id="-12776#2" sampledSeconds="0.00" departed="0" arrived="0" entered="0" left="0" laneChangedFrom="0" laneChangedTo="0"/>
        <edge id="-12776#3" sampledSeconds="0.00" departed="0" arrived="0" entered="0" left="0" laneChangedFrom="0" laneChangedTo="0"/>
        <edge id="-12776#4" sampledSeconds="0.00" departed="0" arrived="0" entered="0" left="0" laneChangedFrom="0" laneChangedTo="0"/>
        <edge id="-12776#5" sampledSeconds="0.00" departed="0" arrived="0" entered="0" left="0" laneChangedFrom="0" laneChangedTo="0"/>
        <edge id="-12776#6" sampledSeconds="0.00" departed="0" arrived="0" entered="0" left="0" laneChangedFrom="0" laneChangedTo="0"/>
        <edge id="-12776#7" sampledSeconds="0.00" departed="0" arrived="0" entered="0" left="0" laneChangedFrom="0" laneChangedTo="0"/>
        <edge id="-12778#0" sampledSeconds="0.00" departed="0" arrived="0" entered="0" left="0" laneChangedFrom="0" laneChangedTo="0"/>
        <edge id="-12778#1" sampledSeconds="0.00" departed="0" arrived="0" entered="0" left="0" laneChangedFrom="0" laneChangedTo="0"/>
        <edge id="-12778#2" sampledSeconds="0.00" departed="0" arrived="0" entered="0" left="0" laneChangedFrom="0" laneChangedTo="0"/>
        <edge id="-12778#3" sampledSeconds="0.00" departed="0" arrived="0" entered="0" left="0" laneChangedFrom="0" laneChangedTo="0"/>
        <edge id="-12778#4" sampledSeconds="0.00" departed="0" arrived="0" entered="0" left="0" laneChangedFrom="0" laneChangedTo="0"/>
        <edge id="-12778#5" sampledSeconds="0.00" departed="0" arrived="0" entered="0" left="0" laneChangedFrom="0" laneChangedTo="0"/>
        <edge id="-12780" sampledSeconds="0.00" departed="0" arrived="0" entered="0" left="0" laneChangedFrom="0" laneChangedTo="0"/>
        <edge id="-12781#0" sampledSeconds="0.00" departed="0" arrived="0" entered="0" left="0" laneChangedFrom="0" laneChangedTo="0"/>
        <edge id="-12781#1" sampledSeconds="0.00" departed="0" arrived="0" entered="0" left="0" laneChangedFrom="0" laneChangedTo="0"/>
        <edge id="-12781#2" sampledSeconds="0.00" departed="0" arrived="0" entered="0" left="0" laneChangedFrom="0" laneChangedTo="0"/>
        <edge id="-12782" sampledSeconds="0.00" departed="0" arrived="0" entered="0" left="0" laneChangedFrom="0" laneChangedTo="0"/>
        <edge id="-12784" sampledSeconds="0.00" departed="0" arrived="0" entered="0" left="0" laneChangedFrom="0" laneChangedTo="0"/>
        <edge id="-12786#0" sampledSeconds="0.00" departed="0" arrived="0" entered="0" left="0" laneChangedFrom="0" laneChangedTo="0"/>
        <edge id="-12786#1" sampledSeconds="0.00" departed="0" arrived="0" entered="0" left="0" laneChangedFrom="0" laneChangedTo="0"/>
        <edge id="-12786#2" sampledSeconds="0.00" departed="0" arrived="0" entered="0" left="0" laneChangedFrom="0" laneChangedTo="0"/>
        <edge id="-12787#0" sampledSeconds="0.00" departed="0" arrived="0" entered="0" left="0" laneChangedFrom="0" laneChangedTo="0"/>
        <edge id="-12787#1" sampledSeconds="0.00" departed="0" arrived="0" entered="0" left="0" laneChangedFrom="0" laneChangedTo="0"/>
        <edge id="-12790" sampledSeconds="1924.41" traveltime="11.28" density="12.39" occupancy="6.19" waitingTime="0.00" speed="4.59" departed="171" arrived="0" entered="0" left="171" laneChangedFrom="0" laneChangedTo="0"/>
        <edge id="-12794" sampledSeconds="943.46" traveltime="6.11" density="3.89" occupancy="0.97" waitingTime="0.00" speed="13.22" departed="0" arrived="0" entered="146" left="145" laneChangedFrom="1" laneChangedTo="1"/>
        <edge id="-12795#0" sampledSeconds="5.08" traveltime="2.02" density="0.09" occupancy="0.02" waitingTime="0.00" speed="9.72" departed="0" arrived="0" entered="2" left="2" laneChangedFrom="2" laneChangedTo="2"/>
        <edge id="-12795#1" sampledSeconds="12.03" traveltime="5.60" density="0.06" occupancy="0.01" waitingTime="0.00" speed="12.12" departed="0" arrived="0" entered="2" left="2" laneChangedFrom="0" laneChangedTo="0"/>
        <edge id="-12795#2" sampledSeconds="3.82" traveltime="1.07" density="0.20" occupancy="0.05" waitingTime="0.00" speed="5.96" departed="0" arrived="0" entered="2" left="2" laneChangedFrom="0" laneChangedTo="0"/>
        <edge id="-12797" sampledSeconds="12771.36" traveltime="97.15" density="110.32" occupancy="55.16" waitingTime="9700.00" speed="0.40" departed="134" arrived="0" entered="0" left="130" laneChangedFrom="0" laneChangedTo="0"/>
        <edge id="-12798" sampledSeconds="62375.51" traveltime="2493.28" density="113.43" occupancy="56.72" waitingTime="61329.00" speed="0.07" departed="37" arrived="0" entered="0" left="13" laneChangedFrom="0" laneChangedTo="0"/>
        <edge id="-12801#0" sampledSeconds="0.00" departed="0" arrived="0" entered="0" left="0" laneChangedFrom="0" laneChangedTo="0"/>
        <edge id="-12801#1" sampledSeconds="0.00" departed="0" arrived="0" entered="0" left="0" laneChangedFrom="0" laneChangedTo="0"/>
        <edge id="-12804" sampledSeconds="22118.61" traveltime="135.74" density="24.24" occupancy="12.12" waitingTime="11775.00" speed="2.24" departed="176" arrived="0" entered="0" left="144" laneChangedFrom="0" laneChangedTo="0"/>
        <edge id="-12805" sampledSeconds="0.00" departed="0" arrived="0" entered="0" left="0" laneChangedFrom="0" laneChangedTo="0"/>
        <edge id="-12806" sampledSeconds="1846.60" traveltime="2.32" density="42.16" occupancy="21.08" waitingTime="6.00" speed="6.29" departed="0" arrived="0" entered="593" left="593" laneChangedFrom="0" laneChangedTo="0"/>
        <edge id="-12807" sampledSeconds="0.00" departed="0" arrived="0" entered="0" left="0" laneChangedFrom="0" laneChangedTo="0"/>
        <edge id="-12808" sampledSeconds="13362.39" traveltime="139.27" density="101.90" occupancy="50.95" waitingTime="10723.00" speed="0.31" departed="99" arrived="0" entered="0" left="95" laneChangedFrom="0" laneChangedTo="0"/>
        <edge id="-12811" sampledSeconds="16886.67" traveltime="273.17" density="119.76" occupancy="59.88" waitingTime="15066.00" speed="0.17" departed="65" arrived="0" entered="0" left="59" laneChangedFrom="0" laneChangedTo="0"/>
        <edge id="-12814#0" sampledSeconds="0.00" departed="0" arrived="0" entered="0" left="0" laneChangedFrom="0" laneChangedTo="0"/>
        <edge id="-12814#1" sampledSeconds="0.00" departed="0" arrived="0" entered="0" left="0" laneChangedFrom="0" laneChangedTo="0"/>
        <edge id="-12814#10" sampledSeconds="32130.02" traveltime="43.61" density="39.77" occupancy="19.88" waitingTime="0.00" speed="6.18" departed="0" arrived="0" entered="736" left="710" laneChangedFrom="0" laneChangedTo="0"/>
        <edge id="-12814#11" sampledSeconds="42947.15" traveltime="64.67" density="48.19" occupancy="24.09" waitingTime="0.00" speed="4.59" departed="0" arrived="0" entered="668" left="638" laneChangedFrom="0" laneChangedTo="0"/>
        <edge id="-12814#12" sampledSeconds="44834.34" traveltime="68.15" density="65.27" occupancy="32.63" waitingTime="0.00" speed="3.36" departed="0" arrived="0" entered="655" left="634" laneChangedFrom="0" laneChangedTo="0"/>
        <edge id="-12814#13" sampledSeconds="37108.13" traveltime="57.65" density="75.93" occupancy="37.96" waitingTime="4.00" speed="2.83" departed="0" arrived="0" entered="633" left="617" laneChangedFrom="0" laneChangedTo="0"/>
        <edge id="-12814#14" sampledSeconds="43877.10" traveltime="68.02" density="81.23" occupancy="40.62" waitingTime="4.00" speed="2.65" departed="0" arrived="0" entered="637" left="619" laneChangedFrom="0" laneChangedTo="0"/>
        <edge id="-12814#15" sampledSeconds="95548.06" traveltime="152.38" density="87.61" occupancy="43.80" waitingTime="0.00" speed="2.39" departed="0" arrived="0" entered="637" left="600" laneChangedFrom="0" laneChangedTo="0"/>
        <edge id="-12814#16" sampledSeconds="43703.11" traveltime="70.14" density="93.79" occupancy="46.90" waitingTime="425.00" speed="2.21" departed="0" arrived="0" entered="612" left="595" laneChangedFrom="0" laneChangedTo="0"/>
        <edge id="-12814#2" sampledSeconds="0.00" departed="0" arrived="0" entered="0" left="0" laneChangedFrom="0" laneChangedTo="0"/>
        <edge id="-12814#3" sampledSeconds="6273.94" traveltime="7.62" density="23.56" occupancy="11.78" waitingTime="0.00" speed="11.66" departed="0" arrived="0" entered="781" left="778" laneChangedFrom="0" laneChangedTo="0"/>
        <edge id="-12814#4" sampledSeconds="4899.13" traveltime="5.91" density="23.62" occupancy="11.81" waitingTime="0.00" speed="11.70" departed="0" arrived="0" entered="777" left="770" laneChangedFrom="0" laneChangedTo="0"/>
        <edge id="-12814#5" sampledSeconds="6067.30" traveltime="7.47" density="25.38" occupancy="12.69" waitingTime="23.00" speed="10.66" departed="0" arrived="0" entered="768" left="760" laneChangedFrom="0" laneChangedTo="0"/>
        <edge id="-12814#6" sampledSeconds="1497.74" traveltime="1.55" density="27.34" occupancy="13.67" waitingTime="11.00" speed="11.78" departed="0" arrived="0" entered="759" left="758" laneChangedFrom="0" laneChangedTo="0"/>
        <edge id="-12814#7" sampledSeconds="1754.45" traveltime="1.82" density="32.15" occupancy="16.08" waitingTime="7.00" speed="10.00" departed="0" arrived="0" entered="758" left="756" laneChangedFrom="0" laneChangedTo="0"/>
        <edge id="-12814#8" sampledSeconds="6543.19" traveltime="8.15" density="29.63" occupancy="14.81" waitingTime="0.00" speed="9.03" departed="0" arrived="0" entered="755" left="748" laneChangedFrom="0" laneChangedTo="0"/>
        <edge id="-12814#9" sampledSeconds="11305.92" traveltime="14.61" density="32.75" occupancy="16.37" waitingTime="1.00" speed="7.88" departed="0" arrived="0" entered="747" left="737" laneChangedFrom="0" laneChangedTo="0"/>
        <edge id="-12816" sampledSeconds="0.00" departed="0" arrived="0" entered="0" left="0" laneChangedFrom="0" laneChangedTo="0"/>
        <edge id="-12817#0" sampledSeconds="0.00" departed="0" arrived="0" entered="0" left="0" laneChangedFrom="0" laneChangedTo="0"/>
        <edge id="-12817#1" sampledSeconds="0.00" departed="0" arrived="0" entered="0" left="0" laneChangedFrom="0" laneChangedTo="0"/>
        <edge id="-12817#2" sampledSeconds="3.82" traveltime="3.45" density="0.03" occupancy="0.01" waitingTime="0.00" speed="13.23" departed="0" arrived="0" entered="1" left="1" laneChangedFrom="0" laneChangedTo="0"/>
        <edge id="-12820#0" sampledSeconds="0.00" departed="0" arrived="0" entered="0" left="0" laneChangedFrom="0" laneChangedTo="0"/>
        <edge id="-12820#1" sampledSeconds="0.00" departed="0" arrived="0" entered="0" left="0" laneChangedFrom="0" laneChangedTo="0"/>
        <edge id="-12821" sampledSeconds="24.35" traveltime="23.97" density="0.03" occupancy="0.01" waitingTime="0.00" speed="12.96" departed="0" arrived="0" entered="1" left="1" laneChangedFrom="0" laneChangedTo="0"/>
        <edge id="-12823#0" sampledSeconds="0.00" departed="0" arrived="0" entered="0" left="0" laneChangedFrom="0" laneChangedTo="0"/>
        <edge id="-12823#1" sampledSeconds="0.00" departed="0" arrived="0" entered="0" left="0" laneChangedFrom="0" laneChangedTo="0"/>
        <edge id="-12825" sampledSeconds="0.00" departed="0" arrived="0" entered="0" left="0" laneChangedFrom="0" laneChangedTo="0"/>
        <edge id="-12826" sampledSeconds="8805.76" traveltime="11.65" density="19.61" occupancy="4.90" waitingTime="0.00" speed="12.84" departed="0" arrived="734" entered="737" left="0" laneChangedFrom="3" laneChangedTo="3"/>
    </interval>
    <interval begin="3000.00" end="6000.00" id="2">
        <edge id="--12769#0" sampledSeconds="0.00" departed="0" arrived="0" entered="0" left="0" laneChangedFrom="0" laneChangedTo="0"/>
        <edge id="--12769#1" sampledSeconds="0.00" departed="0" arrived="0" entered="0" left="0" laneChangedFrom="0" laneChangedTo="0"/>
        <edge id="--12770" sampledSeconds="0.00" departed="0" arrived="0" entered="0" left="0" laneChangedFrom="0" laneChangedTo="0"/>
        <edge id="--12772" sampledSeconds="0.00" departed="0" arrived="0" entered="0" left="0" laneChangedFrom="0" laneChangedTo="0"/>
        <edge id="--12773#0" sampledSeconds="0.00" departed="0" arrived="0" entered="0" left="0" laneChangedFrom="0" laneChangedTo="0"/>
        <edge id="--12773#1" sampledSeconds="0.00" departed="0" arrived="0" entered="0" left="0" laneChangedFrom="0" laneChangedTo="0"/>
        <edge id="--12773#2" sampledSeconds="0.00" departed="0" arrived="0" entered="0" left="0" laneChangedFrom="0" laneChangedTo="0"/>
        <edge id="--12774#0" sampledSeconds="0.00" departed="0" arrived="0" entered="0" left="0" laneChangedFrom="0" laneChangedTo="0"/>
        <edge id="--12774#1" sampledSeconds="0.00" departed="0" arrived="0" entered="0" left="0" laneChangedFrom="0" laneChangedTo="0"/>
        <edge id="--12774#2" sampledSeconds="0.00" departed="0" arrived="0" entered="0" left="0" laneChangedFrom="0" laneChangedTo="0"/>
        <edge id="--12774#3" sampledSeconds="0.00" departed="0" arrived="0" entered="0" left="0" laneChangedFrom="0" laneChangedTo="0"/>
        <edge id="--12775#0" sampledSeconds="0.00" departed="0" arrived="0" entered="0" left="0" laneChangedFrom="0" laneChangedTo="0"/>
        <edge id="--12775#1" sampledSeconds="0.00" departed="0" arrived="0" entered="0" left="0" laneChangedFrom="0" laneChangedTo="0"/>
        <edge id="--12776#0" sampledSeconds="0.00" departed="0" arrived="0" entered="0" left="0" laneChangedFrom="0" laneChangedTo="0"/>
        <edge id="--12776#1" sampledSeconds="0.00" departed="0" arrived="0" entered="0" left="0" laneChangedFrom="0" laneChangedTo="0"/>
        <edge id="--12776#2" sampledSeconds="0.00" departed="0" arrived="0" entered="0" left="0" laneChangedFrom="0" laneChangedTo="0"/>
        <edge id="--12776#3" sampledSeconds="0.00" departed="0" arrived="0" entered="0" left="0" laneChangedFrom="0" laneChangedTo="0"/>
        <edge id="--12776#4" sampledSeconds="0.00" departed="0" arrived="0" entered="0" left="0" laneChangedFrom="0" laneChangedTo="0"/>
        <edge id="--12776#5" sampledSeconds="0.00" departed="0" arrived="0" entered="0" left="0" laneChangedFrom="0" laneChangedTo="0"/>
        <edge id="--12776#6" sampledSeconds="0.00" departed="0" arrived="0" entered="0" left="0" laneChangedFrom="0" laneChangedTo="0"/>
        <edge id="--12776#7" sampledSeconds="0.00" departed="0" arrived="0" entered="0" left="0" laneChangedFrom="0" laneChangedTo="0"/>
        <edge id="--12778#0" sampledSeconds="0.00" departed="0" arrived="0" entered="0" left="0" laneChangedFrom="0" laneChangedTo="0"/>
        <edge id="--12778#1" sampledSeconds="0.00" departed="0" arrived="0" entered="0" left="0" laneChangedFrom="0" laneChangedTo="0"/>
        <edge id="--12778#2" sampledSeconds="0.00" departed="0" arrived="0" entered="0" left="0" laneChangedFrom="0" laneChangedTo="0"/>
        <edge id="--12778#3" sampledSeconds="0.00" departed="0" arrived="0" entered="0" left="0" laneChangedFrom="0" laneChangedTo="0"/>
        <edge id="--12778#4" sampledSeconds="0.00" departed="0" arrived="0" entered="0" left="0" laneChangedFrom="0" laneChangedTo="0"/>
        <edge id="--12778#5" sampledSeconds="0.00" departed="0" arrived="0" entered="0" left="0" laneChangedFrom="0" laneChangedTo="0"/>