<?xml version="1.0" encoding="UTF-8"?>

<!-- generated on 07/26/16 18:32:26 by SUMO Version 0.27.0
<?xml version="1.0" encoding="UTF-8"?>

<configuration xmlns:xsi="http://www.w3.org/2001/XMLSchema-instance" xsi:noNamespaceSchemaLocation="http://sumo.dlr.de/xsd/sumoConfiguration.xsd">

    <input>
        <net-file value="./../network/umassd.net.xml"/>
        <route-files value="./../trips/trip.xml"/>
        <additional-files value="./additional_-12814#14__3000_6000.xml"/>
    </input>

    <output>
        <summary-output value="./../output/summary_-12814#14__3000_6000.xml"/>
    </output>

    <report>
        <log value="./../output/report_-12814#14__3000_6000.xml"/>
    </report>

</configuration>
-->

<meandata xmlns:xsi="http://www.w3.org/2001/XMLSchema-instance" xsi:noNamespaceSchemaLocation="http://sumo.dlr.de/xsd/meandata_file.xsd">
</meandata>
