<?xml version="1.0" encoding="UTF-8"?>

<!-- generated on Mon 11 Sep 2017 04:13:12 PM EDT by SUMO gui Version 0.30.0
<?xml version="1.0" encoding="UTF-8"?>

<configuration xmlns:xsi="http://www.w3.org/2001/XMLSchema-instance" xsi:noNamespaceSchemaLocation="http://sumo.dlr.de/xsd/sumoConfiguration.xsd">

    <input>
        <net-file value="../network/umassd.net.xml"/>
        <route-files value="../trips/trip.xml"/>
        <additional-files value="additional_&#45;&#45;12814#1__0_3000.xml"/>
    </input>

    <output>
        <summary-output value="../output/summary_&#45;&#45;12814#1__0_3000.xml"/>
    </output>

    <processing>
        <time-to-teleport value="-1"/>
    </processing>

    <report>
        <log value="../output/report_&#45;&#45;12814#1__0_3000.xml"/>
    </report>

</configuration>
-->

<meandata xmlns:xsi="http://www.w3.org/2001/XMLSchema-instance" xsi:noNamespaceSchemaLocation="http://sumo.dlr.de/xsd/meandata_file.xsd">
    <interval begin="0.00" end="3000.00" id="1">
        <edge id="--12769#0" sampledSeconds="0.00" departed="0" arrived="0" entered="0" left="0" laneChangedFrom="0" laneChangedTo="0"/>
        <edge id="--12769#1" sampledSeconds="0.00" departed="0" arrived="0" entered="0" left="0" laneChangedFrom="0" laneChangedTo="0"/>
        <edge id="--12770" sampledSeconds="0.00" departed="0" arrived="0" entered="0" left="0" laneChangedFrom="0" laneChangedTo="0"/>
        <edge id="--12772" sampledSeconds="0.00" departed="0" arrived="0" entered="0" left="0" laneChangedFrom="0" laneChangedTo="0"/>
        <edge id="--12773#0" sampledSeconds="0.00" departed="0" arrived="0" entered="0" left="0" laneChangedFrom="0" laneChangedTo="0"/>
        <edge id="--12773#1" sampledSeconds="0.00" departed="0" arrived="0" entered="0" left="0" laneChangedFrom="0" laneChangedTo="0"/>
        <edge id="--12773#2" sampledSeconds="0.00" departed="0" arrived="0" entered="0" left="0" laneChangedFrom="0" laneChangedTo="0"/>
        <edge id="--12774#0" sampledSeconds="0.00" departed="0" arrived="0" entered="0" left="0" laneChangedFrom="0" laneChangedTo="0"/>
        <edge id="--12774#1" sampledSeconds="0.00" departed="0" arrived="0" entered="0" left="0" laneChangedFrom="0" laneChangedTo="0"/>
        <edge id="--12774#2" sampledSeconds="0.00" departed="0" arrived="0" entered="0" left="0" laneChangedFrom="0" laneChangedTo="0"/>
        <edge id="--12774#3" sampledSeconds="0.00" departed="0" arrived="0" entered="0" left="0" laneChangedFrom="0" laneChangedTo="0"/>
        <edge id="--12775#0" sampledSeconds="0.00" departed="0" arrived="0" entered="0" left="0" laneChangedFrom="0" laneChangedTo="0"/>
        <edge id="--12775#1" sampledSeconds="0.00" departed="0" arrived="0" entered="0" left="0" laneChangedFrom="0" laneChangedTo="0"/>
        <edge id="--12776#0" sampledSeconds="0.00" departed="0" arrived="0" entered="0" left="0" laneChangedFrom="0" laneChangedTo="0"/>
        <edge id="--12776#1" sampledSeconds="0.00" departed="0" arrived="0" entered="0" left="0" laneChangedFrom="0" laneChangedTo="0"/>
        <edge id="--12776#2" sampledSeconds="0.00" departed="0" arrived="0" entered="0" left="0" laneChangedFrom="0" laneChangedTo="0"/>
        <edge id="--12776#3" sampledSeconds="0.00" departed="0" arrived="0" entered="0" left="0" laneChangedFrom="0" laneChangedTo="0"/>
        <edge id="--12776#4" sampledSeconds="0.00" departed="0" arrived="0" entered="0" left="0" laneChangedFrom="0" laneChangedTo="0"/>
        <edge id="--12776#5" sampledSeconds="0.00" departed="0" arrived="0" entered="0" left="0" laneChangedFrom="0" laneChangedTo="0"/>
        <edge id="--12776#6" sampledSeconds="0.00" departed="0" arrived="0" entered="0" left="0" laneChangedFrom="0" laneChangedTo="0"/>
        <edge id="--12776#7" sampledSeconds="0.00" departed="0" arrived="0" entered="0" left="0" laneChangedFrom="0" laneChangedTo="0"/>
        <edge id="--12778#0" sampledSeconds="0.00" departed="0" arrived="0" entered="0" left="0" laneChangedFrom="0" laneChangedTo="0"/>
        <edge id="--12778#1" sampledSeconds="0.00" departed="0" arrived="0" entered="0" left="0" laneChangedFrom="0" laneChangedTo="0"/>
        <edge id="--12778#2" sampledSeconds="0.00" departed="0" arrived="0" entered="0" left="0" laneChangedFrom="0" laneChangedTo="0"/>
        <edge id="--12778#3" sampledSeconds="0.00" departed="0" arrived="0" entered="0" left="0" laneChangedFrom="0" laneChangedTo="0"/>
        <edge id="--12778#4" sampledSeconds="0.00" departed="0" arrived="0" entered="0" left="0" laneChangedFrom="0" laneChangedTo="0"/>
        <edge id="--12778#5" sampledSeconds="0.00" departed="0" arrived="0" entered="0" left="0" laneChangedFrom="0" laneChangedTo="0"/>
        <edge id="--12780" sampledSeconds="0.00" departed="0" arrived="0" entered="0" left="0" laneChangedFrom="0" laneChangedTo="0"/>
        <edge id="--12781#0" sampledSeconds="0.00" departed="0" arrived="0" entered="0" left="0" laneChangedFrom="0" laneChangedTo="0"/>
        <edge id="--12781#1" sampledSeconds="0.00" departed="0" arrived="0" entered="0" left="0" laneChangedFrom="0" laneChangedTo="0"/>
        <edge id="--12781#2" sampledSeconds="0.00" departed="0" arrived="0" entered="0" left="0" laneChangedFrom="0" laneChangedTo="0"/>
        <edge id="--12782" sampledSeconds="92664.97" traveltime="1501.71" overlapTraveltime="1509.15" density="49.33" occupancy="24.66" waitingTime="80433.00" speed="0.42" departed="0" arrived="0" entered="73" left="29" laneChangedFrom="0" laneChangedTo="0"/>
        <edge id="--12784" sampledSeconds="0.00" departed="0" arrived="0" entered="0" left="0" laneChangedFrom="0" laneChangedTo="0"/>
        <edge id="--12786#0" sampledSeconds="15929.21" traveltime="158.32" overlapTraveltime="161.56" density="94.43" occupancy="47.21" waitingTime="12160.00" speed="0.38" departed="111" arrived="0" entered="0" left="104" laneChangedFrom="0" laneChangedTo="0"/>
        <edge id="--12786#1" sampledSeconds="0.00" departed="0" arrived="0" entered="0" left="0" laneChangedFrom="0" laneChangedTo="0"/>
        <edge id="--12786#2" sampledSeconds="0.00" departed="0" arrived="0" entered="0" left="0" laneChangedFrom="0" laneChangedTo="0"/>
        <edge id="--12790" sampledSeconds="0.00" departed="0" arrived="0" entered="0" left="0" laneChangedFrom="0" laneChangedTo="0"/>
        <edge id="--12797" sampledSeconds="0.00" departed="0" arrived="0" entered="0" left="0" laneChangedFrom="0" laneChangedTo="0"/>
        <edge id="--12798" sampledSeconds="0.00" departed="0" arrived="0" entered="0" left="0" laneChangedFrom="0" laneChangedTo="0"/>
        <edge id="--12801#0" sampledSeconds="0.00" departed="0" arrived="0" entered="0" left="0" laneChangedFrom="0" laneChangedTo="0"/>
        <edge id="--12801#1" sampledSeconds="0.00" departed="0" arrived="0" entered="0" left="0" laneChangedFrom="0" laneChangedTo="0"/>
        <edge id="--12805" sampledSeconds="1901.27" traveltime="12.55" overlapTraveltime="13.69" density="11.59" occupancy="5.80" waitingTime="38.00" speed="4.36" departed="152" arrived="0" entered="0" left="151" laneChangedFrom="0" laneChangedTo="0"/>
        <edge id="--12806" sampledSeconds="0.00" departed="0" arrived="0" entered="0" left="0" laneChangedFrom="0" laneChangedTo="0"/>
        <edge id="--12807" sampledSeconds="0.00" departed="0" arrived="0" entered="0" left="0" laneChangedFrom="0" laneChangedTo="0"/>
        <edge id="--12808" sampledSeconds="0.00" departed="0" arrived="0" entered="0" left="0" laneChangedFrom="0" laneChangedTo="0"/>
        <edge id="--12811" sampledSeconds="0.00" departed="0" arrived="0" entered="0" left="0" laneChangedFrom="0" laneChangedTo="0"/>
        <edge id="--12814#0" sampledSeconds="0.00" departed="0" arrived="0" entered="0" left="0" laneChangedFrom="0" laneChangedTo="0"/>
        <edge id="--12814#1" sampledSeconds="0.00" departed="0" arrived="0" entered="0" left="0" laneChangedFrom="0" laneChangedTo="0"/>
        <edge id="--12814#10" sampledSeconds="5250.75" traveltime="20.85" overlapTraveltime="21.26" density="6.44" occupancy="3.22" waitingTime="1.00" speed="13.01" departed="0" arrived="0" entered="247" left="247" laneChangedFrom="0" laneChangedTo="0"/>
        <edge id="--12814#11" sampledSeconds="3680.18" traveltime="22.70" overlapTraveltime="23.09" density="4.09" occupancy="2.05" waitingTime="0.00" speed="13.20" departed="0" arrived="0" entered="160" left="159" laneChangedFrom="0" laneChangedTo="0"/>
        <edge id="--12814#12" sampledSeconds="2854.28" traveltime="17.43" overlapTraveltime="17.84" density="4.13" occupancy="2.06" waitingTime="0.00" speed="13.20" departed="0" arrived="0" entered="160" left="160" laneChangedFrom="0" laneChangedTo="0"/>
        <edge id="--12814#13" sampledSeconds="2128.18" traveltime="12.92" overlapTraveltime="13.30" density="4.34" occupancy="2.17" waitingTime="0.00" speed="12.66" departed="0" arrived="0" entered="160" left="160" laneChangedFrom="0" laneChangedTo="0"/>
        <edge id="--12814#14" sampledSeconds="1077.37" traveltime="14.79" overlapTraveltime="15.17" density="1.98" occupancy="0.99" waitingTime="0.00" speed="12.26" departed="0" arrived="0" entered="71" left="71" laneChangedFrom="0" laneChangedTo="0"/>
        <edge id="--12814#15" sampledSeconds="0.00" departed="0" arrived="0" entered="0" left="0" laneChangedFrom="0" laneChangedTo="0"/>
        <edge id="--12814#16" sampledSeconds="0.00" departed="0" arrived="0" entered="0" left="0" laneChangedFrom="0" laneChangedTo="0"/>
        <edge id="--12814#2" sampledSeconds="34147.72" traveltime="48.00" overlapTraveltime="49.99" density="62.64" occupancy="31.32" waitingTime="3913.00" speed="3.73" departed="0" arrived="0" entered="692" left="673" laneChangedFrom="0" laneChangedTo="0"/>
        <edge id="--12814#3" sampledSeconds="7823.07" traveltime="11.76" overlapTraveltime="12.45" density="28.99" occupancy="14.49" waitingTime="1086.00" speed="7.63" departed="0" arrived="0" entered="629" left="628" laneChangedFrom="0" laneChangedTo="0"/>
        <edge id="--12814#4" sampledSeconds="4260.10" traveltime="8.04" overlapTraveltime="8.54" density="20.36" occupancy="10.18" waitingTime="645.00" speed="8.76" departed="0" arrived="0" entered="499" left="499" laneChangedFrom="0" laneChangedTo="0"/>
        <edge id="--12814#5" sampledSeconds="4450.89" traveltime="8.47" overlapTraveltime="8.92" density="18.55" occupancy="9.28" waitingTime="581.00" speed="9.53" departed="0" arrived="0" entered="499" left="499" laneChangedFrom="0" laneChangedTo="0"/>
        <edge id="--12814#6" sampledSeconds="921.38" traveltime="1.72" overlapTraveltime="2.15" density="16.62" occupancy="8.31" waitingTime="77.00" speed="10.91" departed="0" arrived="0" entered="428" left="428" laneChangedFrom="0" laneChangedTo="0"/>
        <edge id="--12814#7" sampledSeconds="864.79" traveltime="1.62" overlapTraveltime="2.02" density="15.85" occupancy="7.92" waitingTime="25.00" speed="11.48" departed="0" arrived="0" entered="428" left="428" laneChangedFrom="0" laneChangedTo="0"/>
        <edge id="--12814#8" sampledSeconds="2063.48" traveltime="5.63" overlapTraveltime="6.02" density="9.30" occupancy="4.65" waitingTime="0.00" speed="13.13" departed="0" arrived="0" entered="343" left="343" laneChangedFrom="0" laneChangedTo="0"/>
        <edge id="--12814#9" sampledSeconds="3251.53" traveltime="9.10" overlapTraveltime="9.48" density="9.37" occupancy="4.69" waitingTime="0.00" speed="12.73" departed="0" arrived="0" entered="343" left="343" laneChangedFrom="0" laneChangedTo="0"/>
        <edge id="--12816" sampledSeconds="58680.24" traveltime="557.56" overlapTraveltime="563.71" density="75.24" occupancy="37.62" waitingTime="36162.00" speed="0.47" departed="123" arrived="0" entered="0" left="89" laneChangedFrom="0" laneChangedTo="0"/>
        <edge id="--12817#0" sampledSeconds="5944.60" traveltime="212.36" overlapTraveltime="214.71" density="10.88" occupancy="5.44" waitingTime="5057.00" speed="0.87" departed="0" arrived="0" entered="28" left="25" laneChangedFrom="0" laneChangedTo="0"/>
        <edge id="--12817#1" sampledSeconds="0.00" departed="0" arrived="0" entered="0" left="0" laneChangedFrom="0" laneChangedTo="0"/>
        <edge id="--12817#2" sampledSeconds="0.00" departed="0" arrived="0" entered="0" left="0" laneChangedFrom="0" laneChangedTo="0"/>
        <edge id="--12820#0" sampledSeconds="796.57" traveltime="28.07" overlapTraveltime="28.45" density="0.72" occupancy="0.36" waitingTime="0.00" speed="13.23" departed="0" arrived="0" entered="28" left="28" laneChangedFrom="0" laneChangedTo="0"/>
        <edge id="--12820#1" sampledSeconds="0.00" departed="0" arrived="0" entered="0" left="0" laneChangedFrom="0" laneChangedTo="0"/>
        <edge id="--12821" sampledSeconds="0.00" departed="0" arrived="0" entered="0" left="0" laneChangedFrom="0" laneChangedTo="0"/>
        <edge id="--12823#0" sampledSeconds="0.00" departed="0" arrived="0" entered="0" left="0" laneChangedFrom="0" laneChangedTo="0"/>
        <edge id="--12823#1" sampledSeconds="0.00" departed="0" arrived="0" entered="0" left="0" laneChangedFrom="0" laneChangedTo="0"/>
        <edge id="-12769#0" sampledSeconds="0.00" departed="0" arrived="0" entered="0" left="0" laneChangedFrom="0" laneChangedTo="0"/>
        <edge id="-12769#1" sampledSeconds="0.00" departed="0" arrived="0" entered="0" left="0" laneChangedFrom="0" laneChangedTo="0"/>
        <edge id="-12770" sampledSeconds="0.00" departed="0" arrived="0" entered="0" left="0" laneChangedFrom="0" laneChangedTo="0"/>
        <edge id="-12772" sampledSeconds="0.00" departed="0" arrived="0" entered="0" left="0" laneChangedFrom="0" laneChangedTo="0"/>
        <edge id="-12773#0" sampledSeconds="0.00" departed="0" arrived="0" entered="0" left="0" laneChangedFrom="0" laneChangedTo="0"/>
        <edge id="-12773#1" sampledSeconds="0.00" departed="0" arrived="0" entered="0" left="0" laneChangedFrom="0" laneChangedTo="0"/>
        <edge id="-12773#2" sampledSeconds="0.00" departed="0" arrived="0" entered="0" left="0" laneChangedFrom="0" laneChangedTo="0"/>
        <edge id="-12774#0" sampledSeconds="0.00" departed="0" arrived="0" entered="0" left="0" laneChangedFrom="0" laneChangedTo="0"/>
        <edge id="-12774#1" sampledSeconds="0.00" departed="0" arrived="0" entered="0" left="0" laneChangedFrom="0" laneChangedTo="0"/>
        <edge id="-12774#2" sampledSeconds="0.00" departed="0" arrived="0" entered="0" left="0" laneChangedFrom="0" laneChangedTo="0"/>
        <edge id="-12774#3" sampledSeconds="0.00" departed="0" arrived="0" entered="0" left="0" laneChangedFrom="0" laneChangedTo="0"/>
        <edge id="-12775#0" sampledSeconds="0.00" departed="0" arrived="0" entered="0" left="0" laneChangedFrom="0" laneChangedTo="0"/>
        <edge id="-12775#1" sampledSeconds="0.00" departed="0" arrived="0" entered="0" left="0" laneChangedFrom="0" laneChangedTo="0"/>
        <edge id="-12776#0" sampledSeconds="0.00" departed="0" arrived="0" entered="0" left="0" laneChangedFrom="0" laneChangedTo="0"/>
        <edge id="-12776#1" sampledSeconds="0.00" departed="0" arrived="0" entered="0" left="0" laneChangedFrom="0" laneChangedTo="0"/>
        <edge id="-12776#2" sampledSeconds="0.00" departed="0" arrived="0" entered="0" left="0" laneChangedFrom="0" laneChangedTo="0"/>
        <edge id="-12776#3" sampledSeconds="0.00" departed="0" arrived="0" entered="0" left="0" laneChangedFrom="0" laneChangedTo="0"/>
        <edge id="-12776#4" sampledSeconds="0.00" departed="0" arrived="0" entered="0" left="0" laneChangedFrom="0" laneChangedTo="0"/>
        <edge id="-12776#5" sampledSeconds="0.00" departed="0" arrived="0" entered="0" left="0" laneChangedFrom="0" laneChangedTo="0"/>
        <edge id="-12776#6" sampledSeconds="0.00" departed="0" arrived="0" entered="0" left="0" laneChangedFrom="0" laneChangedTo="0"/>
        <edge id="-12776#7" sampledSeconds="0.00" departed="0" arrived="0" entered="0" left="0" laneChangedFrom="0" laneChangedTo="0"/>
        <edge id="-12778#0" sampledSeconds="0.00" departed="0" arrived="0" entered="0" left="0" laneChangedFrom="0" laneChangedTo="0"/>
        <edge id="-12778#1" sampledSeconds="0.00" departed="0" arrived="0" entered="0" left="0" laneChangedFrom="0" laneChangedTo="0"/>
        <edge id="-12778#2" sampledSeconds="0.00" departed="0" arrived="0" entered="0" left="0" laneChangedFrom="0" laneChangedTo="0"/>
        <edge id="-12778#3" sampledSeconds="0.00" departed="0" arrived="0" entered="0" left="0" laneChangedFrom="0" laneChangedTo="0"/>
        <edge id="-12778#4" sampledSeconds="0.00" departed="0" arrived="0" entered="0" left="0" laneChangedFrom="0" laneChangedTo="0"/>
        <edge id="-12778#5" sampledSeconds="0.00" departed="0" arrived="0" entered="0" left="0" laneChangedFrom="0" laneChangedTo="0"/>
        <edge id="-12780" sampledSeconds="0.00" departed="0" arrived="0" entered="0" left="0" laneChangedFrom="0" laneChangedTo="0"/>
        <edge id="-12781#0" sampledSeconds="0.00" departed="0" arrived="0" entered="0" left="0" laneChangedFrom="0" laneChangedTo="0"/>
        <edge id="-12781#1" sampledSeconds="0.00" departed="0" arrived="0" entered="0" left="0" laneChangedFrom="0" laneChangedTo="0"/>
        <edge id="-12781#2" sampledSeconds="0.00" departed="0" arrived="0" entered="0" left="0" laneChangedFrom="0" laneChangedTo="0"/>
        <edge id="-12782" sampledSeconds="40173.32" traveltime="308.95" overlapTraveltime="310.36" density="20.96" occupancy="10.48" waitingTime="30979.00" speed="2.07" departed="147" arrived="0" entered="0" left="95" laneChangedFrom="0" laneChangedTo="0"/>
        <edge id="-12784" sampledSeconds="0.00" departed="0" arrived="0" entered="0" left="0" laneChangedFrom="0" laneChangedTo="0"/>
        <edge id="-12786#0" sampledSeconds="0.00" departed="0" arrived="0" entered="0" left="0" laneChangedFrom="0" laneChangedTo="0"/>
        <edge id="-12786#1" sampledSeconds="0.00" departed="0" arrived="0" entered="0" left="0" laneChangedFrom="0" laneChangedTo="0"/>
        <edge id="-12786#2" sampledSeconds="0.00" departed="0" arrived="0" entered="0" left="0" laneChangedFrom="0" laneChangedTo="0"/>
        <edge id="-12787#0" sampledSeconds="0.00" departed="0" arrived="0" entered="0" left="0" laneChangedFrom="0" laneChangedTo="0"/>
        <edge id="-12787#1" sampledSeconds="0.00" departed="0" arrived="0" entered="0" left="0" laneChangedFrom="0" laneChangedTo="0"/>
        <edge id="-12790" sampledSeconds="17036.29" traveltime="276.71" overlapTraveltime="278.43" density="109.65" occupancy="54.82" waitingTime="14289.00" speed="0.20" departed="70" arrived="0" entered="0" left="64" laneChangedFrom="0" laneChangedTo="0"/>
        <edge id="-12794" sampledSeconds="0.00" departed="0" arrived="0" entered="0" left="0" laneChangedFrom="0" laneChangedTo="0"/>
        <edge id="-12795#0" sampledSeconds="0.00" departed="0" arrived="0" entered="0" left="0" laneChangedFrom="0" laneChangedTo="0"/>
        <edge id="-12795#1" sampledSeconds="0.00" departed="0" arrived="0" entered="0" left="0" laneChangedFrom="0" laneChangedTo="0"/>
        <edge id="-12795#2" sampledSeconds="0.00" departed="0" arrived="0" entered="0" left="0" laneChangedFrom="0" laneChangedTo="0"/>
        <edge id="-12797" sampledSeconds="11546.46" traveltime="148.08" overlapTraveltime="147.94" density="99.74" occupancy="49.87" waitingTime="9811.00" speed="0.29" departed="91" arrived="0" entered="0" left="86" laneChangedFrom="0" laneChangedTo="0"/>
        <edge id="-12798" sampledSeconds="61153.23" traveltime="2811.66" overlapTraveltime="2853.04" density="111.21" occupancy="55.60" waitingTime="60248.00" speed="0.07" departed="34" arrived="0" entered="0" left="10" laneChangedFrom="0" laneChangedTo="0"/>
        <edge id="-12801#0" sampledSeconds="0.00" departed="0" arrived="0" entered="0" left="0" laneChangedFrom="0" laneChangedTo="0"/>
        <edge id="-12801#1" sampledSeconds="0.00" departed="0" arrived="0" entered="0" left="0" laneChangedFrom="0" laneChangedTo="0"/>
        <edge id="-12804" sampledSeconds="49333.75" traveltime="428.87" overlapTraveltime="432.11" density="54.07" occupancy="27.04" waitingTime="37157.00" speed="0.72" departed="136" arrived="0" entered="0" left="96" laneChangedFrom="0" laneChangedTo="0"/>
        <edge id="-12805" sampledSeconds="0.00" departed="0" arrived="0" entered="0" left="0" laneChangedFrom="0" laneChangedTo="0"/>
        <edge id="-12806" sampledSeconds="1737.28" traveltime="2.26" overlapTraveltime="2.95" density="39.66" occupancy="19.83" waitingTime="0.00" speed="6.63" departed="0" arrived="0" entered="588" left="588" laneChangedFrom="0" laneChangedTo="0"/>
        <edge id="-12807" sampledSeconds="0.00" departed="0" arrived="0" entered="0" left="0" laneChangedFrom="0" laneChangedTo="0"/>
        <edge id="-12808" sampledSeconds="13863.12" traveltime="207.28" overlapTraveltime="207.30" density="105.72" occupancy="52.86" waitingTime="11764.00" speed="0.23" departed="77" arrived="0" entered="0" left="72" laneChangedFrom="0" laneChangedTo="0"/>
        <edge id="-12811" sampledSeconds="16020.16" traveltime="131.69" overlapTraveltime="133.81" density="113.62" occupancy="56.81" waitingTime="11264.00" speed="0.39" departed="136" arrived="0" entered="0" left="130" laneChangedFrom="0" laneChangedTo="0"/>
        <edge id="-12814#0" sampledSeconds="0.00" departed="0" arrived="0" entered="0" left="0" laneChangedFrom="0" laneChangedTo="0"/>
        <edge id="-12814#1" sampledSeconds="0.00" departed="0" arrived="0" entered="0" left="0" laneChangedFrom="0" laneChangedTo="0"/>
        <edge id="-12814#10" sampledSeconds="51657.83" traveltime="68.65" overlapTraveltime="70.03" density="63.94" occupancy="31.97" waitingTime="59.00" speed="3.92" departed="0" arrived="0" entered="751" left="724" laneChangedFrom="0" laneChangedTo="0"/>
        <edge id="-12814#11" sampledSeconds="60288.59" traveltime="92.18" overlapTraveltime="93.89" density="67.65" occupancy="33.82" waitingTime="65.00" speed="3.22" departed="0" arrived="0" entered="657" left="628" laneChangedFrom="0" laneChangedTo="0"/>
        <edge id="-12814#12" sampledSeconds="54427.54" traveltime="82.51" overlapTraveltime="84.37" density="79.24" occupancy="39.62" waitingTime="0.00" speed="2.77" departed="0" arrived="0" entered="656" left="634" laneChangedFrom="0" laneChangedTo="0"/>
        <edge id="-12814#13" sampledSeconds="40213.60" traveltime="62.34" overlapTraveltime="64.37" density="82.28" occupancy="41.14" waitingTime="16.00" speed="2.61" departed="0" arrived="0" entered="633" left="617" laneChangedFrom="0" laneChangedTo="0"/>
        <edge id="-12814#14" sampledSeconds="46530.07" traveltime="72.64" overlapTraveltime="74.80" density="86.14" occupancy="43.07" waitingTime="12.00" speed="2.47" departed="0" arrived="0" entered="631" left="614" laneChangedFrom="0" laneChangedTo="0"/>
        <edge id="-12814#15" sampledSeconds="96847.91" traveltime="155.93" overlapTraveltime="158.18" density="88.80" occupancy="44.40" waitingTime="0.00" speed="2.33" departed="0" arrived="0" entered="631" left="595" laneChangedFrom="0" laneChangedTo="0"/>
        <edge id="-12814#16" sampledSeconds="43178.89" traveltime="70.94" overlapTraveltime="72.38" density="92.67" occupancy="46.33" waitingTime="320.00" speed="2.21" departed="0" arrived="0" entered="605" left="589" laneChangedFrom="0" laneChangedTo="0"/>
        <edge id="-12814#2" sampledSeconds="29289.03" traveltime="35.13" overlapTraveltime="35.97" density="54.36" occupancy="27.18" waitingTime="1884.00" speed="5.13" departed="0" arrived="0" entered="823" left="806" laneChangedFrom="0" laneChangedTo="0"/>
        <edge id="-12814#3" sampledSeconds="15213.01" traveltime="18.09" overlapTraveltime="19.01" density="57.12" occupancy="28.56" waitingTime="1271.00" speed="4.93" departed="0" arrived="0" entered="805" left="796" laneChangedFrom="0" laneChangedTo="0"/>
        <edge id="-12814#4" sampledSeconds="12374.82" traveltime="14.55" overlapTraveltime="15.64" density="59.65" occupancy="29.83" waitingTime="944.00" speed="4.74" departed="0" arrived="0" entered="795" left="788" laneChangedFrom="0" laneChangedTo="0"/>
        <edge id="-12814#5" sampledSeconds="12445.61" traveltime="15.83" overlapTraveltime="16.49" density="52.06" occupancy="26.03" waitingTime="374.00" speed="5.14" departed="0" arrived="0" entered="759" left="751" laneChangedFrom="0" laneChangedTo="0"/>
        <edge id="-12814#6" sampledSeconds="2559.20" traveltime="2.71" overlapTraveltime="3.41" density="46.72" occupancy="23.36" waitingTime="177.00" speed="6.82" departed="0" arrived="0" entered="751" left="750" laneChangedFrom="0" laneChangedTo="0"/>
        <edge id="-12814#7" sampledSeconds="3516.65" traveltime="3.80" overlapTraveltime="4.70" density="64.44" occupancy="32.22" waitingTime="144.00" speed="4.93" departed="0" arrived="0" entered="749" left="747" laneChangedFrom="0" laneChangedTo="0"/>
        <edge id="-12814#8" sampledSeconds="12480.85" traveltime="15.73" overlapTraveltime="16.80" density="56.51" occupancy="28.26" waitingTime="33.00" speed="4.68" departed="0" arrived="0" entered="747" left="739" laneChangedFrom="0" laneChangedTo="0"/>
        <edge id="-12814#9" sampledSeconds="21215.86" traveltime="26.78" overlapTraveltime="28.02" density="61.45" occupancy="30.73" waitingTime="4.00" speed="4.29" departed="0" arrived="0" entered="763" left="752" laneChangedFrom="0" laneChangedTo="0"/>
        <edge id="-12816" sampledSeconds="0.00" departed="0" arrived="0" entered="0" left="0" laneChangedFrom="0" laneChangedTo="0"/>
        <edge id="-12817#0" sampledSeconds="0.00" departed="0" arrived="0" entered="0" left="0" laneChangedFrom="0" laneChangedTo="0"/>
        <edge id="-12817#1" sampledSeconds="0.00" departed="0" arrived="0" entered="0" left="0" laneChangedFrom="0" laneChangedTo="0"/>
        <edge id="-12817#2" sampledSeconds="107.25" traveltime="3.45" overlapTraveltime="3.83" density="0.78" occupancy="0.39" waitingTime="0.00" speed="13.21" departed="0" arrived="0" entered="28" left="28" laneChangedFrom="0" laneChangedTo="0"/>
        <edge id="-12820#0" sampledSeconds="0.00" departed="0" arrived="0" entered="0" left="0" laneChangedFrom="0" laneChangedTo="0"/>
        <edge id="-12820#1" sampledSeconds="0.00" departed="0" arrived="0" entered="0" left="0" laneChangedFrom="0" laneChangedTo="0"/>
        <edge id="-12821" sampledSeconds="698.40" traveltime="24.57" overlapTraveltime="24.94" density="0.75" occupancy="0.37" waitingTime="0.00" speed="12.65" departed="0" arrived="0" entered="28" left="28" laneChangedFrom="0" laneChangedTo="0"/>
        <edge id="-12823#0" sampledSeconds="0.00" departed="0" arrived="0" entered="0" left="0" laneChangedFrom="0" laneChangedTo="0"/>
        <edge id="-12823#1" sampledSeconds="0.00" departed="0" arrived="0" entered="0" left="0" laneChangedFrom="0" laneChangedTo="0"/>
        <edge id="-12825" sampledSeconds="0.00" departed="0" arrived="0" entered="0" left="0" laneChangedFrom="0" laneChangedTo="0"/>
        <edge id="-12826" sampledSeconds="7040.29" traveltime="11.70" overlapTraveltime="12.08" density="15.68" occupancy="3.92" waitingTime="0.00" speed="12.80" departed="0" arrived="585" entered="588" left="0" laneChangedFrom="0" laneChangedTo="0"/>
    </interval>
    <interval begin="3000.00" end="6000.00" id="2">
        <edge id="--12769#0" sampledSeconds="0.00" departed="0" arrived="0" entered="0" left="0" laneChangedFrom="0" laneChangedTo="0"/>
        <edge id="--12769#1" sampledSeconds="0.00" departed="0" arrived="0" entered="0" left="0" laneChangedFrom="0" laneChangedTo="0"/>
        <edge id="--12770" sampledSeconds="0.00" departed="0" arrived="0" entered="0" left="0" laneChangedFrom="0" laneChangedTo="0"/>
        <edge id="--12772" sampledSeconds="0.00" departed="0" arrived="0" entered="0" left="0" laneChangedFrom="0" laneChangedTo="0"/>
        <edge id="--12773#0" sampledSeconds="0.00" departed="0" arrived="0" entered="0" left="0" laneChangedFrom="0" laneChangedTo="0"/>
        <edge id="--12773#1" sampledSeconds="0.00" departed="0" arrived="0" entered="0" left="0" laneChangedFrom="0" laneChangedTo="0"/>
        <edge id="--12773#2" sampledSeconds="0.00" departed="0" arrived="0" entered="0" left="0" laneChangedFrom="0" laneChangedTo="0"/>
        <edge id="--12774#0" sampledSeconds="0.00" departed="0" arrived="0" entered="0" left="0" laneChangedFrom="0" laneChangedTo="0"/>
        <edge id="--12774#1" sampledSeconds="0.00" departed="0" arrived="0" entered="0" left="0" laneChangedFrom="0" laneChangedTo="0"/>
        <edge id="--12774#2" sampledSeconds="0.00" departed="0" arrived="0" entered="0" left="0" laneChangedFrom="0" laneChangedTo="0"/>
        <edge id="--12774#3" sampledSeconds="0.00" departed="0" arrived="0" entered="0" left="0" laneChangedFrom="0" laneChangedTo="0"/>
        <edge id="--12775#0" sampledSeconds="0.00" departed="0" arrived="0" entered="0" left="0" laneChangedFrom="0" laneChangedTo="0"/>
        <edge id="--12775#1" sampledSeconds="0.00" departed="0" arrived="0" entered="0" left="0" laneChangedFrom="0" laneChangedTo="0"/>
        <edge id="--12776#0" sampledSeconds="0.00" departed="0" arrived="0" entered="0" left="0" laneChangedFrom="0" laneChangedTo="0"/>
        <edge id="--12776#1" sampledSeconds="0.00" departed="0" arrived="0" entered="0" left="0" laneChangedFrom="0" laneChangedTo="0"/>
        <edge id="--12776#2" sampledSeconds="0.00" departed="0" arrived="0" entered="0" left="0" laneChangedFrom="0" laneChangedTo="0"/>
        <edge id="--12776#3" sampledSeconds="0.00" departed="0" arrived="0" entered="0" left="0" laneChangedFrom="0" laneChangedTo="0"/>
        <edge id="--12776#4" sampledSeconds="0.00" departed="0" arrived="0" entered="0" left="0" laneChangedFrom="0" laneChangedTo="0"/>
        <edge id="--12776#5" sampledSeconds="0.00" departed="0" arrived="0" entered="0" left="0" laneChangedFrom="0" laneChangedTo="0"/>