<?xml version="1.0" encoding="UTF-8"?>

<!-- generated on Mon 11 Sep 2017 03:48:47 PM EDT by SUMO gui Version 0.30.0
<?xml version="1.0" encoding="UTF-8"?>

<configuration xmlns:xsi="http://www.w3.org/2001/XMLSchema-instance" xsi:noNamespaceSchemaLocation="http://sumo.dlr.de/xsd/sumoConfiguration.xsd">

    <input>
        <net-file value="./../network/umassd.net.xml"/>
        <route-files value="./../trips/trip.xml"/>
        <additional-files value="./additional_12814#4__0_3000.xml"/>
    </input>

    <output>
        <summary-output value="./../output/summary_12814#4__0_3000.xml"/>
    </output>

    <processing>
        <time-to-teleport value="-1"/>
    </processing>

    <report>
        <log value="./../output/report_12814#4__0_3000.xml"/>
    </report>

</configuration>
-->

<meandata xmlns:xsi="http://www.w3.org/2001/XMLSchema-instance" xsi:noNamespaceSchemaLocation="http://sumo.dlr.de/xsd/meandata_file.xsd">
    <interval begin="0.00" end="3000.00" id="1">
        <edge id="--12769#0" sampledSeconds="0.00" departed="0" arrived="0" entered="0" left="0" laneChangedFrom="0" laneChangedTo="0"/>
        <edge id="--12769#1" sampledSeconds="0.00" departed="0" arrived="0" entered="0" left="0" laneChangedFrom="0" laneChangedTo="0"/>
        <edge id="--12770" sampledSeconds="0.00" departed="0" arrived="0" entered="0" left="0" laneChangedFrom="0" laneChangedTo="0"/>
        <edge id="--12772" sampledSeconds="0.00" departed="0" arrived="0" entered="0" left="0" laneChangedFrom="0" laneChangedTo="0"/>
        <edge id="--12773#0" sampledSeconds="0.00" departed="0" arrived="0" entered="0" left="0" laneChangedFrom="0" laneChangedTo="0"/>
        <edge id="--12773#1" sampledSeconds="0.00" departed="0" arrived="0" entered="0" left="0" laneChangedFrom="0" laneChangedTo="0"/>
        <edge id="--12773#2" sampledSeconds="0.00" departed="0" arrived="0" entered="0" left="0" laneChangedFrom="0" laneChangedTo="0"/>
        <edge id="--12774#0" sampledSeconds="0.00" departed="0" arrived="0" entered="0" left="0" laneChangedFrom="0" laneChangedTo="0"/>
        <edge id="--12774#1" sampledSeconds="0.00" departed="0" arrived="0" entered="0" left="0" laneChangedFrom="0" laneChangedTo="0"/>
        <edge id="--12774#2" sampledSeconds="0.00" departed="0" arrived="0" entered="0" left="0" laneChangedFrom="0" laneChangedTo="0"/>
        <edge id="--12774#3" sampledSeconds="0.00" departed="0" arrived="0" entered="0" left="0" laneChangedFrom="0" laneChangedTo="0"/>
        <edge id="--12775#0" sampledSeconds="0.00" departed="0" arrived="0" entered="0" left="0" laneChangedFrom="0" laneChangedTo="0"/>
        <edge id="--12775#1" sampledSeconds="0.00" departed="0" arrived="0" entered="0" left="0" laneChangedFrom="0" laneChangedTo="0"/>
        <edge id="--12776#0" sampledSeconds="0.00" departed="0" arrived="0" entered="0" left="0" laneChangedFrom="0" laneChangedTo="0"/>
        <edge id="--12776#1" sampledSeconds="0.00" departed="0" arrived="0" entered="0" left="0" laneChangedFrom="0" laneChangedTo="0"/>
        <edge id="--12776#2" sampledSeconds="0.00" departed="0" arrived="0" entered="0" left="0" laneChangedFrom="0" laneChangedTo="0"/>
        <edge id="--12776#3" sampledSeconds="0.00" departed="0" arrived="0" entered="0" left="0" laneChangedFrom="0" laneChangedTo="0"/>
        <edge id="--12776#4" sampledSeconds="0.00" departed="0" arrived="0" entered="0" left="0" laneChangedFrom="0" laneChangedTo="0"/>
        <edge id="--12776#5" sampledSeconds="0.00" departed="0" arrived="0" entered="0" left="0" laneChangedFrom="0" laneChangedTo="0"/>
        <edge id="--12776#6" sampledSeconds="0.00" departed="0" arrived="0" entered="0" left="0" laneChangedFrom="0" laneChangedTo="0"/>
        <edge id="--12776#7" sampledSeconds="0.00" departed="0" arrived="0" entered="0" left="0" laneChangedFrom="0" laneChangedTo="0"/>
        <edge id="--12778#0" sampledSeconds="0.00" departed="0" arrived="0" entered="0" left="0" laneChangedFrom="0" laneChangedTo="0"/>
        <edge id="--12778#1" sampledSeconds="0.00" departed="0" arrived="0" entered="0" left="0" laneChangedFrom="0" laneChangedTo="0"/>
        <edge id="--12778#2" sampledSeconds="0.00" departed="0" arrived="0" entered="0" left="0" laneChangedFrom="0" laneChangedTo="0"/>
        <edge id="--12778#3" sampledSeconds="0.00" departed="0" arrived="0" entered="0" left="0" laneChangedFrom="0" laneChangedTo="0"/>
        <edge id="--12778#4" sampledSeconds="0.00" departed="0" arrived="0" entered="0" left="0" laneChangedFrom="0" laneChangedTo="0"/>
        <edge id="--12778#5" sampledSeconds="0.00" departed="0" arrived="0" entered="0" left="0" laneChangedFrom="0" laneChangedTo="0"/>
        <edge id="--12780" sampledSeconds="0.00" departed="0" arrived="0" entered="0" left="0" laneChangedFrom="0" laneChangedTo="0"/>
        <edge id="--12781#0" sampledSeconds="0.00" departed="0" arrived="0" entered="0" left="0" laneChangedFrom="0" laneChangedTo="0"/>
        <edge id="--12781#1" sampledSeconds="0.00" departed="0" arrived="0" entered="0" left="0" laneChangedFrom="0" laneChangedTo="0"/>
        <edge id="--12781#2" sampledSeconds="0.00" departed="0" arrived="0" entered="0" left="0" laneChangedFrom="0" laneChangedTo="0"/>
        <edge id="--12782" sampledSeconds="30247.26" traveltime="828.88" overlapTraveltime="833.46" density="16.10" occupancy="8.05" waitingTime="26601.00" speed="0.76" departed="0" arrived="0" entered="39" left="18" laneChangedFrom="0" laneChangedTo="0"/>
        <edge id="--12784" sampledSeconds="0.00" departed="0" arrived="0" entered="0" left="0" laneChangedFrom="0" laneChangedTo="0"/>
        <edge id="--12786#0" sampledSeconds="12947.68" traveltime="89.36" overlapTraveltime="92.80" density="76.75" occupancy="38.38" waitingTime="7752.00" speed="0.66" departed="155" arrived="0" entered="0" left="149" laneChangedFrom="0" laneChangedTo="0"/>
        <edge id="--12786#1" sampledSeconds="0.00" departed="0" arrived="0" entered="0" left="0" laneChangedFrom="0" laneChangedTo="0"/>
        <edge id="--12786#2" sampledSeconds="0.00" departed="0" arrived="0" entered="0" left="0" laneChangedFrom="0" laneChangedTo="0"/>
        <edge id="--12790" sampledSeconds="0.00" departed="0" arrived="0" entered="0" left="0" laneChangedFrom="0" laneChangedTo="0"/>
        <edge id="--12797" sampledSeconds="0.00" departed="0" arrived="0" entered="0" left="0" laneChangedFrom="0" laneChangedTo="0"/>
        <edge id="--12798" sampledSeconds="0.00" departed="0" arrived="0" entered="0" left="0" laneChangedFrom="0" laneChangedTo="0"/>
        <edge id="--12801#0" sampledSeconds="0.00" departed="0" arrived="0" entered="0" left="0" laneChangedFrom="0" laneChangedTo="0"/>
        <edge id="--12801#1" sampledSeconds="21.02" traveltime="20.14" overlapTraveltime="21.02" density="0.04" occupancy="0.02" waitingTime="0.00" speed="9.65" departed="0" arrived="0" entered="1" left="1" laneChangedFrom="0" laneChangedTo="0"/>
        <edge id="--12805" sampledSeconds="2281.91" traveltime="15.27" overlapTraveltime="16.43" density="13.92" occupancy="6.96" waitingTime="286.00" speed="3.63" departed="152" arrived="0" entered="0" left="151" laneChangedFrom="0" laneChangedTo="0"/>
        <edge id="--12806" sampledSeconds="0.00" departed="0" arrived="0" entered="0" left="0" laneChangedFrom="0" laneChangedTo="0"/>
        <edge id="--12807" sampledSeconds="0.00" departed="0" arrived="0" entered="0" left="0" laneChangedFrom="0" laneChangedTo="0"/>
        <edge id="--12808" sampledSeconds="0.00" departed="0" arrived="0" entered="0" left="0" laneChangedFrom="0" laneChangedTo="0"/>
        <edge id="--12811" sampledSeconds="0.00" departed="0" arrived="0" entered="0" left="0" laneChangedFrom="0" laneChangedTo="0"/>
        <edge id="--12814#0" sampledSeconds="981.16" traveltime="1.81" overlapTraveltime="2.19" density="13.74" occupancy="6.87" waitingTime="0.00" speed="13.15" departed="0" arrived="0" entered="448" left="448" laneChangedFrom="0" laneChangedTo="0"/>
        <edge id="--12814#1" sampledSeconds="852.90" traveltime="1.51" overlapTraveltime="1.90" density="16.21" occupancy="8.10" waitingTime="0.00" speed="11.84" departed="0" arrived="0" entered="448" left="448" laneChangedFrom="0" laneChangedTo="0"/>
        <edge id="--12814#10" sampledSeconds="8172.56" traveltime="20.94" overlapTraveltime="21.35" density="10.03" occupancy="5.02" waitingTime="4.00" speed="12.96" departed="0" arrived="0" entered="384" left="382" laneChangedFrom="0" laneChangedTo="0"/>
        <edge id="--12814#11" sampledSeconds="5499.03" traveltime="22.68" overlapTraveltime="23.06" density="6.11" occupancy="3.06" waitingTime="0.00" speed="13.22" departed="0" arrived="0" entered="240" left="238" laneChangedFrom="0" laneChangedTo="0"/>
        <edge id="--12814#12" sampledSeconds="4289.38" traveltime="17.42" overlapTraveltime="17.80" density="6.20" occupancy="3.10" waitingTime="0.00" speed="13.23" departed="0" arrived="0" entered="241" left="240" laneChangedFrom="0" laneChangedTo="0"/>
        <edge id="--12814#13" sampledSeconds="3229.12" traveltime="12.92" overlapTraveltime="13.29" density="6.59" occupancy="3.29" waitingTime="0.00" speed="12.67" departed="0" arrived="0" entered="244" left="242" laneChangedFrom="0" laneChangedTo="0"/>
        <edge id="--12814#14" sampledSeconds="1787.76" traveltime="14.95" overlapTraveltime="15.41" density="3.29" occupancy="1.65" waitingTime="3.00" speed="12.07" departed="0" arrived="0" entered="116" left="116" laneChangedFrom="0" laneChangedTo="0"/>
        <edge id="--12814#15" sampledSeconds="0.00" departed="0" arrived="0" entered="0" left="0" laneChangedFrom="0" laneChangedTo="0"/>
        <edge id="--12814#16" sampledSeconds="0.00" departed="0" arrived="0" entered="0" left="0" laneChangedFrom="0" laneChangedTo="0"/>
        <edge id="--12814#2" sampledSeconds="4289.85" traveltime="14.06" overlapTraveltime="14.44" density="7.87" occupancy="3.93" waitingTime="0.00" speed="12.93" departed="0" arrived="0" entered="298" left="297" laneChangedFrom="0" laneChangedTo="0"/>
        <edge id="--12814#3" sampledSeconds="1057.88" traveltime="7.32" overlapTraveltime="7.69" density="3.92" occupancy="1.96" waitingTime="0.00" speed="12.34" departed="0" arrived="0" entered="138" left="137" laneChangedFrom="0" laneChangedTo="0"/>
        <edge id="--12814#4" sampledSeconds="0.00" departed="0" arrived="0" entered="0" left="0" laneChangedFrom="0" laneChangedTo="0"/>
        <edge id="--12814#5" sampledSeconds="7422.51" traveltime="9.22" overlapTraveltime="10.05" density="30.94" occupancy="15.47" waitingTime="95.00" speed="8.45" departed="0" arrived="0" entered="743" left="734" laneChangedFrom="0" laneChangedTo="0"/>
        <edge id="--12814#6" sampledSeconds="1394.33" traveltime="1.74" overlapTraveltime="2.21" density="25.15" occupancy="12.58" waitingTime="6.00" speed="10.61" departed="0" arrived="0" entered="632" left="629" laneChangedFrom="0" laneChangedTo="0"/>
        <edge id="--12814#7" sampledSeconds="1307.26" traveltime="1.64" overlapTraveltime="2.07" density="23.96" occupancy="11.98" waitingTime="14.00" speed="11.22" departed="0" arrived="0" entered="633" left="632" laneChangedFrom="0" laneChangedTo="0"/>
        <edge id="--12814#8" sampledSeconds="3165.20" traveltime="5.79" overlapTraveltime="6.20" density="14.26" occupancy="7.13" waitingTime="2.00" speed="12.73" departed="0" arrived="0" entered="511" left="508" laneChangedFrom="0" laneChangedTo="0"/>
        <edge id="--12814#9" sampledSeconds="4837.12" traveltime="9.06" overlapTraveltime="9.45" density="13.94" occupancy="6.97" waitingTime="0.00" speed="12.77" departed="0" arrived="0" entered="512" left="511" laneChangedFrom="0" laneChangedTo="0"/>
        <edge id="--12816" sampledSeconds="13885.50" traveltime="89.83" overlapTraveltime="94.06" density="17.80" occupancy="8.90" waitingTime="3929.00" speed="2.82" departed="152" arrived="0" entered="0" left="143" laneChangedFrom="0" laneChangedTo="0"/>
        <edge id="--12817#0" sampledSeconds="2274.77" traveltime="278.73" overlapTraveltime="285.51" density="4.16" occupancy="2.08" waitingTime="2034.00" speed="0.66" departed="0" arrived="0" entered="9" left="2" laneChangedFrom="0" laneChangedTo="0"/>
        <edge id="--12817#1" sampledSeconds="0.00" departed="0" arrived="0" entered="0" left="0" laneChangedFrom="0" laneChangedTo="0"/>
        <edge id="--12817#2" sampledSeconds="0.00" departed="0" arrived="0" entered="0" left="0" laneChangedFrom="0" laneChangedTo="0"/>
        <edge id="--12820#0" sampledSeconds="284.44" traveltime="28.07" overlapTraveltime="28.44" density="0.26" occupancy="0.13" waitingTime="0.00" speed="13.23" departed="0" arrived="0" entered="10" left="10" laneChangedFrom="0" laneChangedTo="0"/>
        <edge id="--12820#1" sampledSeconds="0.00" departed="0" arrived="0" entered="0" left="0" laneChangedFrom="0" laneChangedTo="0"/>
        <edge id="--12821" sampledSeconds="0.00" departed="0" arrived="0" entered="0" left="0" laneChangedFrom="0" laneChangedTo="0"/>
        <edge id="--12823#0" sampledSeconds="0.00" departed="0" arrived="0" entered="0" left="0" laneChangedFrom="0" laneChangedTo="0"/>
        <edge id="--12823#1" sampledSeconds="0.00" departed="0" arrived="0" entered="0" left="0" laneChangedFrom="0" laneChangedTo="0"/>
        <edge id="-12769#0" sampledSeconds="0.00" departed="0" arrived="0" entered="0" left="0" laneChangedFrom="0" laneChangedTo="0"/>
        <edge id="-12769#1" sampledSeconds="0.00" departed="0" arrived="0" entered="0" left="0" laneChangedFrom="0" laneChangedTo="0"/>
        <edge id="-12770" sampledSeconds="0.00" departed="0" arrived="0" entered="0" left="0" laneChangedFrom="0" laneChangedTo="0"/>
        <edge id="-12772" sampledSeconds="0.00" departed="0" arrived="0" entered="0" left="0" laneChangedFrom="0" laneChangedTo="0"/>
        <edge id="-12773#0" sampledSeconds="0.00" departed="0" arrived="0" entered="0" left="0" laneChangedFrom="0" laneChangedTo="0"/>
        <edge id="-12773#1" sampledSeconds="0.00" departed="0" arrived="0" entered="0" left="0" laneChangedFrom="0" laneChangedTo="0"/>
        <edge id="-12773#2" sampledSeconds="0.00" departed="0" arrived="0" entered="0" left="0" laneChangedFrom="0" laneChangedTo="0"/>
        <edge id="-12774#0" sampledSeconds="0.00" departed="0" arrived="0" entered="0" left="0" laneChangedFrom="0" laneChangedTo="0"/>
        <edge id="-12774#1" sampledSeconds="0.00" departed="0" arrived="0" entered="0" left="0" laneChangedFrom="0" laneChangedTo="0"/>
        <edge id="-12774#2" sampledSeconds="0.00" departed="0" arrived="0" entered="0" left="0" laneChangedFrom="0" laneChangedTo="0"/>
        <edge id="-12774#3" sampledSeconds="0.00" departed="0" arrived="0" entered="0" left="0" laneChangedFrom="0" laneChangedTo="0"/>
        <edge id="-12775#0" sampledSeconds="0.00" departed="0" arrived="0" entered="0" left="0" laneChangedFrom="0" laneChangedTo="0"/>
        <edge id="-12775#1" sampledSeconds="0.00" departed="0" arrived="0" entered="0" left="0" laneChangedFrom="0" laneChangedTo="0"/>
        <edge id="-12776#0" sampledSeconds="0.00" departed="0" arrived="0" entered="0" left="0" laneChangedFrom="0" laneChangedTo="0"/>
        <edge id="-12776#1" sampledSeconds="0.00" departed="0" arrived="0" entered="0" left="0" laneChangedFrom="0" laneChangedTo="0"/>
        <edge id="-12776#2" sampledSeconds="0.00" departed="0" arrived="0" entered="0" left="0" laneChangedFrom="0" laneChangedTo="0"/>
        <edge id="-12776#3" sampledSeconds="0.00" departed="0" arrived="0" entered="0" left="0" laneChangedFrom="0" laneChangedTo="0"/>
        <edge id="-12776#4" sampledSeconds="0.00" departed="0" arrived="0" entered="0" left="0" laneChangedFrom="0" laneChangedTo="0"/>
        <edge id="-12776#5" sampledSeconds="0.00" departed="0" arrived="0" entered="0" left="0" laneChangedFrom="0" laneChangedTo="0"/>
        <edge id="-12776#6" sampledSeconds="0.00" departed="0" arrived="0" entered="0" left="0" laneChangedFrom="0" laneChangedTo="0"/>
        <edge id="-12776#7" sampledSeconds="0.00" departed="0" arrived="0" entered="0" left="0" laneChangedFrom="0" laneChangedTo="0"/>
        <edge id="-12778#0" sampledSeconds="0.00" departed="0" arrived="0" entered="0" left="0" laneChangedFrom="0" laneChangedTo="0"/>
        <edge id="-12778#1" sampledSeconds="0.00" departed="0" arrived="0" entered="0" left="0" laneChangedFrom="0" laneChangedTo="0"/>
        <edge id="-12778#2" sampledSeconds="0.00" departed="0" arrived="0" entered="0" left="0" laneChangedFrom="0" laneChangedTo="0"/>
        <edge id="-12778#3" sampledSeconds="0.00" departed="0" arrived="0" entered="0" left="0" laneChangedFrom="0" laneChangedTo="0"/>
        <edge id="-12778#4" sampledSeconds="0.00" departed="0" arrived="0" entered="0" left="0" laneChangedFrom="0" laneChangedTo="0"/>
        <edge id="-12778#5" sampledSeconds="0.00" departed="0" arrived="0" entered="0" left="0" laneChangedFrom="0" laneChangedTo="0"/>
        <edge id="-12780" sampledSeconds="0.00" departed="0" arrived="0" entered="0" left="0" laneChangedFrom="0" laneChangedTo="0"/>
        <edge id="-12781#0" sampledSeconds="0.00" departed="0" arrived="0" entered="0" left="0" laneChangedFrom="0" laneChangedTo="0"/>
        <edge id="-12781#1" sampledSeconds="0.00" departed="0" arrived="0" entered="0" left="0" laneChangedFrom="0" laneChangedTo="0"/>
        <edge id="-12781#2" sampledSeconds="0.00" departed="0" arrived="0" entered="0" left="0" laneChangedFrom="0" laneChangedTo="0"/>
        <edge id="-12782" sampledSeconds="8044.56" traveltime="54.37" overlapTraveltime="55.33" density="4.20" occupancy="2.10" waitingTime="177.00" speed="11.64" departed="147" arrived="0" entered="0" left="146" laneChangedFrom="0" laneChangedTo="0"/>
        <edge id="-12784" sampledSeconds="0.00" departed="0" arrived="0" entered="0" left="0" laneChangedFrom="0" laneChangedTo="0"/>
        <edge id="-12786#0" sampledSeconds="0.00" departed="0" arrived="0" entered="0" left="0" laneChangedFrom="0" laneChangedTo="0"/>
        <edge id="-12786#1" sampledSeconds="0.00" departed="0" arrived="0" entered="0" left="0" laneChangedFrom="0" laneChangedTo="0"/>
        <edge id="-12786#2" sampledSeconds="0.00" departed="0" arrived="0" entered="0" left="0" laneChangedFrom="0" laneChangedTo="0"/>
        <edge id="-12787#0" sampledSeconds="0.00" departed="0" arrived="0" entered="0" left="0" laneChangedFrom="0" laneChangedTo="0"/>
        <edge id="-12787#1" sampledSeconds="0.00" departed="0" arrived="0" entered="0" left="0" laneChangedFrom="0" laneChangedTo="0"/>
        <edge id="-12790" sampledSeconds="2001.67" traveltime="12.64" overlapTraveltime="13.66" density="12.88" occupancy="6.44" waitingTime="73.00" speed="4.16" departed="161" arrived="0" entered="0" left="161" laneChangedFrom="0" laneChangedTo="0"/>
        <edge id="-12794" sampledSeconds="3012.68" traveltime="6.12" overlapTraveltime="6.50" density="12.43" occupancy="3.11" waitingTime="0.00" speed="13.19" departed="0" arrived="0" entered="465" left="462" laneChangedFrom="0" laneChangedTo="0"/>
        <edge id="-12795#0" sampledSeconds="42.42" traveltime="2.08" overlapTraveltime="2.50" density="0.72" occupancy="0.18" waitingTime="0.00" speed="9.89" departed="0" arrived="0" entered="17" left="17" laneChangedFrom="17" laneChangedTo="17"/>
        <edge id="-12795#1" sampledSeconds="96.63" traveltime="5.22" overlapTraveltime="5.68" density="0.47" occupancy="0.12" waitingTime="0.00" speed="12.83" departed="0" arrived="0" entered="17" left="17" laneChangedFrom="0" laneChangedTo="0"/>
        <edge id="-12795#2" sampledSeconds="34.81" traveltime="1.07" overlapTraveltime="2.05" density="1.82" occupancy="0.45" waitingTime="0.00" speed="5.56" departed="0" arrived="0" entered="17" left="17" laneChangedFrom="0" laneChangedTo="0"/>
        <edge id="-12797" sampledSeconds="9568.79" traveltime="83.88" overlapTraveltime="84.83" density="82.65" occupancy="41.33" waitingTime="6745.00" speed="0.51" departed="130" arrived="0" entered="0" left="126" laneChangedFrom="0" laneChangedTo="0"/>
        <edge id="-12798" sampledSeconds="60155.66" traveltime="2438.53" overlapTraveltime="2470.14" density="109.39" occupancy="54.70" waitingTime="59108.00" speed="0.08" departed="37" arrived="0" entered="0" left="13" laneChangedFrom="0" laneChangedTo="0"/>
        <edge id="-12801#0" sampledSeconds="0.00" departed="0" arrived="0" entered="0" left="0" laneChangedFrom="0" laneChangedTo="0"/>
        <edge id="-12801#1" sampledSeconds="0.00" departed="0" arrived="0" entered="0" left="0" laneChangedFrom="0" laneChangedTo="0"/>
        <edge id="-12804" sampledSeconds="20745.47" traveltime="140.30" overlapTraveltime="142.38" density="22.74" occupancy="11.37" waitingTime="9714.00" speed="2.17" departed="159" arrived="0" entered="1" left="130" laneChangedFrom="0" laneChangedTo="0"/>
        <edge id="-12805" sampledSeconds="0.00" departed="0" arrived="0" entered="0" left="0" laneChangedFrom="0" laneChangedTo="0"/>
        <edge id="-12806" sampledSeconds="2152.02" traveltime="3.08" overlapTraveltime="3.98" density="49.13" occupancy="24.57" waitingTime="106.00" speed="4.92" departed="0" arrived="0" entered="541" left="540" laneChangedFrom="0" laneChangedTo="0"/>
        <edge id="-12807" sampledSeconds="0.00" departed="0" arrived="0" entered="0" left="0" laneChangedFrom="0" laneChangedTo="0"/>
        <edge id="-12808" sampledSeconds="12085.19" traveltime="114.63" overlapTraveltime="115.24" density="92.16" occupancy="46.08" waitingTime="9068.00" speed="0.42" departed="120" arrived="0" entered="0" left="115" laneChangedFrom="0" laneChangedTo="0"/>
        <edge id="-12811" sampledSeconds="1431.38" traveltime="10.55" overlapTraveltime="11.42" density="10.15" occupancy="5.08" waitingTime="0.00" speed="4.55" departed="140" arrived="0" entered="0" left="139" laneChangedFrom="0" laneChangedTo="0"/>
        <edge id="-12814#0" sampledSeconds="0.00" departed="0" arrived="0" entered="0" left="0" laneChangedFrom="0" laneChangedTo="0"/>
        <edge id="-12814#1" sampledSeconds="0.00" departed="0" arrived="0" entered="0" left="0" laneChangedFrom="0" laneChangedTo="0"/>
        <edge id="-12814#10" sampledSeconds="33467.73" traveltime="48.41" overlapTraveltime="49.47" density="41.42" occupancy="20.71" waitingTime="8.00" speed="5.55" departed="0" arrived="0" entered="691" left="663" laneChangedFrom="0" laneChangedTo="0"/>
        <edge id="-12814#11" sampledSeconds="42650.15" traveltime="68.85" overlapTraveltime="70.22" density="47.85" occupancy="23.93" waitingTime="36.00" speed="4.30" departed="0" arrived="0" entered="623" left="592" laneChangedFrom="0" laneChangedTo="0"/>
        <edge id="-12814#12" sampledSeconds="43306.25" traveltime="70.85" overlapTraveltime="72.53" density="63.05" occupancy="31.52" waitingTime="0.00" speed="3.23" departed="0" arrived="0" entered="609" left="586" laneChangedFrom="0" laneChangedTo="0"/>
        <edge id="-12814#13" sampledSeconds="34226.31" traveltime="57.41" overlapTraveltime="59.35" density="70.03" occupancy="35.02" waitingTime="22.00" speed="2.83" departed="0" arrived="0" entered="585" left="569" laneChangedFrom="0" laneChangedTo="0"/>
        <edge id="-12814#14" sampledSeconds="40372.66" traveltime="67.49" overlapTraveltime="69.57" density="74.74" occupancy="37.37" waitingTime="23.00" speed="2.66" departed="0" arrived="0" entered="589" left="572" laneChangedFrom="0" laneChangedTo="0"/>
        <edge id="-12814#15" sampledSeconds="91732.80" traveltime="156.11" overlapTraveltime="158.40" density="84.11" occupancy="42.06" waitingTime="65.00" speed="2.33" departed="0" arrived="0" entered="597" left="562" laneChangedFrom="0" laneChangedTo="0"/>
        <edge id="-12814#16" sampledSeconds="43692.92" traveltime="75.73" overlapTraveltime="77.19" density="93.77" occupancy="46.88" waitingTime="1112.00" speed="2.08" departed="0" arrived="0" entered="574" left="558" laneChangedFrom="0" laneChangedTo="0"/>
        <edge id="-12814#2" sampledSeconds="0.00" departed="0" arrived="0" entered="0" left="0" laneChangedFrom="0" laneChangedTo="0"/>
        <edge id="-12814#3" sampledSeconds="0.00" departed="0" arrived="0" entered="0" left="0" laneChangedFrom="0" laneChangedTo="0"/>
        <edge id="-12814#4" sampledSeconds="0.00" departed="0" arrived="0" entered="0" left="0" laneChangedFrom="0" laneChangedTo="0"/>
        <edge id="-12814#5" sampledSeconds="7295.10" traveltime="9.66" overlapTraveltime="10.14" density="30.52" occupancy="15.26" waitingTime="223.00" speed="8.35" departed="0" arrived="0" entered="724" left="716" laneChangedFrom="0" laneChangedTo="0"/>
        <edge id="-12814#6" sampledSeconds="1673.46" traveltime="1.86" overlapTraveltime="2.34" density="30.55" occupancy="15.27" waitingTime="90.00" speed="9.93" departed="0" arrived="0" entered="715" left="714" laneChangedFrom="0" laneChangedTo="0"/>
        <edge id="-12814#7" sampledSeconds="1995.62" traveltime="2.23" overlapTraveltime="2.80" density="36.57" occupancy="18.28" waitingTime="82.00" speed="8.27" departed="0" arrived="0" entered="713" left="711" laneChangedFrom="0" laneChangedTo="0"/>
        <edge id="-12814#8" sampledSeconds="7530.31" traveltime="9.97" overlapTraveltime="10.67" density="34.10" occupancy="17.05" waitingTime="17.00" speed="7.37" departed="0" arrived="0" entered="710" left="702" laneChangedFrom="0" laneChangedTo="0"/>
        <edge id="-12814#9" sampledSeconds="12688.65" traveltime="17.39" overlapTraveltime="18.20" density="36.75" occupancy="18.38" waitingTime="4.00" speed="6.60" departed="0" arrived="0" entered="703" left="692" laneChangedFrom="0" laneChangedTo="0"/>
        <edge id="-12816" sampledSeconds="0.00" departed="0" arrived="0" entered="0" left="0" laneChangedFrom="0" laneChangedTo="0"/>
        <edge id="-12817#0" sampledSeconds="0.00" departed="0" arrived="0" entered="0" left="0" laneChangedFrom="0" laneChangedTo="0"/>
        <edge id="-12817#1" sampledSeconds="0.00" departed="0" arrived="0" entered="0" left="0" laneChangedFrom="0" laneChangedTo="0"/>
        <edge id="-12817#2" sampledSeconds="35.52" traveltime="3.43" overlapTraveltime="3.80" density="0.26" occupancy="0.13" waitingTime="0.00" speed="13.30" departed="0" arrived="0" entered="10" left="9" laneChangedFrom="0" laneChangedTo="0"/>
        <edge id="-12820#0" sampledSeconds="0.00" departed="0" arrived="0" entered="0" left="0" laneChangedFrom="0" laneChangedTo="0"/>
        <edge id="-12820#1" sampledSeconds="0.00" departed="0" arrived="0" entered="0" left="0" laneChangedFrom="0" laneChangedTo="0"/>
        <edge id="-12821" sampledSeconds="241.99" traveltime="23.82" overlapTraveltime="24.20" density="0.26" occupancy="0.13" waitingTime="0.00" speed="13.04" departed="0" arrived="0" entered="10" left="10" laneChangedFrom="0" laneChangedTo="0"/>
        <edge id="-12823#0" sampledSeconds="0.00" departed="0" arrived="0" entered="0" left="0" laneChangedFrom="0" laneChangedTo="0"/>
        <edge id="-12823#1" sampledSeconds="0.00" departed="0" arrived="0" entered="0" left="0" laneChangedFrom="0" laneChangedTo="0"/>
        <edge id="-12825" sampledSeconds="0.00" departed="0" arrived="0" entered="0" left="0" laneChangedFrom="0" laneChangedTo="0"/>
        <edge id="-12826" sampledSeconds="11908.66" traveltime="11.61" overlapTraveltime="11.99" density="26.52" occupancy="6.63" waitingTime="0.00" speed="12.90" departed="0" arrived="998" entered="1002" left="0" laneChangedFrom="0" laneChangedTo="0"/>
    </interval>
    <interval begin="3000.00" end="6000.00" id="2">
        <edge id="--12769#0" sampledSeconds="0.00" departed="0" arrived="0" entered="0" left="0" laneChangedFrom="0" laneChangedTo="0"/>
        <edge id="--12769#1" sampledSeconds="0.00" departed="0" arrived="0" entered="0" left="0" laneChangedFrom="0" laneChangedTo="0"/>
        <edge id="--12770" sampledSeconds="0.00" departed="0" arrived="0" entered="0" left="0" laneChangedFrom="0" laneChangedTo="0"/>
        <edge id="--12772" sampledSeconds="0.00" departed="0" arrived="0" entered="0" left="0" laneChangedFrom="0" laneChangedTo="0"/>
        <edge id="--12773#0" sampledSeconds="0.00" departed="0" arrived="0" entered="0" left="0" laneChangedFrom="0" laneChangedTo="0"/>
        <edge id="--12773#1" sampledSeconds="0.00" departed="0" arrived="0" entered="0" left="0" laneChangedFrom="0" laneChangedTo="0"/>
        <edge id="--12773#2" sampledSeconds="0.00" departed="0" arrived="0" entered="0" left="0" laneChangedFrom="0" laneChangedTo="0"/>
        <edge id="--12774#0" sampledSeconds="0.00" departed="0" arrived="0" entered="0" left="0" laneChangedFrom="0" laneChangedTo="0"/>
        <edge id="--12774#1" sampledSeconds="0.00" departed="0" arrived="0" entered="0" left="0" laneChangedFrom="0" laneChangedTo="0"/>
        <edge id="--12774#2" sampledSeconds="0.00" departed="0" arrived="0" entered="0" left="0" laneChangedFrom="0" laneChangedTo="0"/>
        <edge id="--12774#3" sampledSeconds="0.00" departed="0" arrived="0" entered="0" left="0" laneChangedFrom="0" laneChangedTo="0"/>
        <edge id="--12775#0" sampledSeconds="0.00" departed="0" arrived="0" entered="0" left="0" laneChangedFrom="0" laneChangedTo="0"/>
        <edge id="--12775#1" sampledSeconds="0.00" departed="0" arrived="0" entered="0" left="0" laneChangedFrom="0" laneChangedTo="0"/>
        <edge id="--12776#0" sampledSeconds="0.00" departed="0" arrived="0" entered="0" left="0" laneChangedFrom="0" laneChangedTo="0"/>
        <edge id="--12776#1" sampledSeconds="0.00" departed="0" arrived="0" entered="0" left="0" laneChangedFrom="0" laneChangedTo="0"/>
        <edge id="--12776#2" sampledSeconds="0.00" departed="0" arrived="0" entered="0" left="0" laneChangedFrom="0" laneChangedTo="0"/>
        <edge id="--12776#3" sampledSeconds="0.00" departed="0" arrived="0" entered="0" left="0" laneChangedFrom="0" laneChangedTo="0"/>
        <edge id="--12776#4" sampledSeconds="0.00" departed="0" arrived="0" entered="0" left="0" laneChangedFrom="0" laneChangedTo="0"/>