<?xml version="1.0" encoding="UTF-8"?>

<!-- generated on 02/12/18 15:52:55 by SUMO Version 0.30.0
<?xml version="1.0" encoding="UTF-8"?>

<configuration xmlns:xsi="http://www.w3.org/2001/XMLSchema-instance" xsi:noNamespaceSchemaLocation="http://sumo.dlr.de/xsd/sumoConfiguration.xsd">

    <input>
        <net-file value="C:/Users/Shekar/Desktop/laptop/sumo_sim/sioux_falls/config/../network/sf_net.net.xml"/>
        <route-files value="C:/Users/Shekar/Desktop/laptop/sumo_sim/sioux_falls/config/../trips/trip.xml"/>
        <additional-files value="C:/Users/Shekar/Desktop/laptop/sumo_sim/sioux_falls/config/additional_52__0_1000.xml"/>
    </input>

    <output>
        <summary-output value="C:/Users/Shekar/Desktop/laptop/sumo_sim/sioux_falls/config/../output/summary_52__0_1000.xml"/>
    </output>

    <processing>
        <time-to-teleport value="300"/>
    </processing>

    <report>
        <log value="C:/Users/Shekar/Desktop/laptop/sumo_sim/sioux_falls/config/../output/report_52__0_1000.xml"/>
    </report>

</configuration>
-->

<meandata xmlns:xsi="http://www.w3.org/2001/XMLSchema-instance" xsi:noNamespaceSchemaLocation="http://sumo.dlr.de/xsd/meandata_file.xsd">
    <interval begin="0.00" end="1000.00" id="1">
        <edge id="1" sampledSeconds="5434.91" traveltime="222.31" overlapTraveltime="222.66" density="1.01" occupancy="0.50" waitingTime="0.00" speed="24.25" departed="6" arrived="10" entered="24" left="8" laneChangedFrom="0" laneChangedTo="0"/>
        <edge id="10" sampledSeconds="1639.90" traveltime="231.15" overlapTraveltime="231.75" density="0.69" occupancy="0.34" waitingTime="0.00" speed="10.34" departed="8" arrived="0" entered="0" left="5" laneChangedFrom="0" laneChangedTo="0"/>
        <edge id="11" sampledSeconds="2061.32" traveltime="84.91" overlapTraveltime="85.22" density="1.15" occupancy="0.58" waitingTime="0.00" speed="21.07" departed="4" arrived="0" entered="21" left="24" laneChangedFrom="0" laneChangedTo="0"/>
        <edge id="12" sampledSeconds="4428.90" traveltime="126.39" overlapTraveltime="127.05" density="2.23" occupancy="1.11" waitingTime="0.00" speed="15.71" departed="5" arrived="0" entered="31" left="34" laneChangedFrom="0" laneChangedTo="0"/>
        <edge id="13" sampledSeconds="1066.53" traveltime="133.16" overlapTraveltime="133.89" density="0.90" occupancy="0.45" waitingTime="0.00" speed="8.93" departed="8" arrived="0" entered="0" left="8" laneChangedFrom="0" laneChangedTo="0"/>
        <edge id="14" sampledSeconds="3679.22" traveltime="78.12" overlapTraveltime="78.40" density="2.64" occupancy="1.32" waitingTime="0.00" speed="17.82" departed="5" arrived="15" entered="48" left="27" laneChangedFrom="0" laneChangedTo="0"/>
        <edge id="15" sampledSeconds="2652.76" traveltime="126.70" overlapTraveltime="127.12" density="1.33" occupancy="0.67" waitingTime="0.00" speed="15.70" departed="10" arrived="0" entered="13" left="19" laneChangedFrom="0" laneChangedTo="0"/>
        <edge id="16" sampledSeconds="2491.93" traveltime="63.83" overlapTraveltime="64.42" density="2.09" occupancy="1.05" waitingTime="0.00" speed="18.56" departed="5" arrived="0" entered="35" left="37" laneChangedFrom="0" laneChangedTo="0"/>
        <edge id="17" sampledSeconds="3328.86" traveltime="130.36" overlapTraveltime="131.11" density="1.67" occupancy="0.84" waitingTime="2.00" speed="15.23" departed="11" arrived="0" entered="17" left="24" laneChangedFrom="0" laneChangedTo="0"/>
        <edge id="18" sampledSeconds="1092.96" traveltime="48.73" overlapTraveltime="49.72" density="0.92" occupancy="0.46" waitingTime="11.00" speed="24.08" departed="4" arrived="0" entered="18" left="22" laneChangedFrom="0" laneChangedTo="0"/>
        <edge id="19" sampledSeconds="3054.27" traveltime="64.02" overlapTraveltime="64.47" density="2.57" occupancy="1.28" waitingTime="0.00" speed="18.54" departed="10" arrived="0" entered="39" left="45" laneChangedFrom="0" laneChangedTo="0"/>
        <edge id="2" sampledSeconds="797.89" traveltime="60.70" overlapTraveltime="61.50" density="0.57" occupancy="0.29" waitingTime="1.00" speed="22.72" departed="7" arrived="0" entered="6" left="13" laneChangedFrom="0" laneChangedTo="0"/>
        <edge id="20" sampledSeconds="4468.63" traveltime="129.34" overlapTraveltime="129.75" density="2.24" occupancy="1.12" waitingTime="2.00" speed="15.39" departed="9" arrived="11" entered="30" left="19" laneChangedFrom="0" laneChangedTo="0"/>
        <edge id="21" sampledSeconds="910.36" traveltime="258.08" overlapTraveltime="258.83" density="0.46" occupancy="0.23" waitingTime="0.00" speed="7.71" departed="4" arrived="0" entered="0" left="3" laneChangedFrom="0" laneChangedTo="0"/>
        <edge id="22" sampledSeconds="3214.15" traveltime="119.22" overlapTraveltime="119.83" density="2.70" occupancy="1.35" waitingTime="1.00" speed="9.98" departed="5" arrived="0" entered="24" left="25" laneChangedFrom="0" laneChangedTo="0"/>
        <edge id="23" sampledSeconds="1376.58" traveltime="132.29" overlapTraveltime="133.14" density="1.16" occupancy="0.58" waitingTime="1.00" speed="8.98" departed="6" arrived="0" entered="6" left="9" laneChangedFrom="0" laneChangedTo="0"/>
        <edge id="24" sampledSeconds="2852.02" traveltime="258.60" overlapTraveltime="259.64" density="1.43" occupancy="0.72" waitingTime="17.00" speed="7.69" departed="6" arrived="0" entered="5" left="11" laneChangedFrom="0" laneChangedTo="0"/>
        <edge id="25" sampledSeconds="1859.56" traveltime="226.68" overlapTraveltime="227.57" density="1.56" occupancy="0.78" waitingTime="0.00" speed="5.25" departed="8" arrived="0" entered="2" left="5" laneChangedFrom="0" laneChangedTo="0"/>
        <edge id="26" sampledSeconds="507.65" traveltime="226.79" overlapTraveltime="227.65" density="0.43" occupancy="0.21" waitingTime="0.00" speed="5.25" departed="2" arrived="0" entered="1" left="2" laneChangedFrom="0" laneChangedTo="0"/>
        <edge id="27" sampledSeconds="2797.52" traveltime="277.46" overlapTraveltime="278.23" density="1.56" occupancy="0.78" waitingTime="0.00" speed="6.45" departed="4" arrived="0" entered="10" left="7" laneChangedFrom="0" laneChangedTo="0"/>
        <edge id="28" sampledSeconds="4756.81" traveltime="346.76" overlapTraveltime="347.43" density="1.84" occupancy="0.92" waitingTime="0.00" speed="7.46" departed="11" arrived="0" entered="10" left="7" laneChangedFrom="0" laneChangedTo="0"/>
        <edge id="29" sampledSeconds="5218.22" traveltime="173.68" overlapTraveltime="174.51" density="2.63" occupancy="1.32" waitingTime="11.00" speed="11.39" departed="4" arrived="0" entered="28" left="27" laneChangedFrom="0" laneChangedTo="0"/>
        <edge id="3" sampledSeconds="5537.41" traveltime="221.78" overlapTraveltime="222.08" density="1.03" occupancy="0.51" waitingTime="0.00" speed="24.31" departed="3" arrived="9" entered="31" left="8" laneChangedFrom="0" laneChangedTo="0"/>
        <edge id="30" sampledSeconds="856.05" traveltime="283.71" overlapTraveltime="284.35" density="0.37" occupancy="0.19" waitingTime="0.00" speed="8.15" departed="6" arrived="0" entered="0" left="1" laneChangedFrom="0" laneChangedTo="0"/>
        <edge id="31" sampledSeconds="1024.11" traveltime="230.40" overlapTraveltime="231.12" density="0.43" occupancy="0.21" waitingTime="0.00" speed="10.36" departed="4" arrived="0" entered="1" left="4" laneChangedFrom="0" laneChangedTo="0"/>
        <edge id="32" sampledSeconds="2372.50" traveltime="278.15" overlapTraveltime="278.85" density="1.33" occupancy="0.66" waitingTime="0.00" speed="6.44" departed="6" arrived="0" entered="3" left="8" laneChangedFrom="0" laneChangedTo="0"/>
        <edge id="33" sampledSeconds="2552.80" traveltime="115.86" overlapTraveltime="116.70" density="1.61" occupancy="0.80" waitingTime="4.00" speed="13.67" departed="4" arrived="0" entered="21" left="20" laneChangedFrom="0" laneChangedTo="0"/>
        <edge id="34" sampledSeconds="1385.83" traveltime="280.13" overlapTraveltime="280.74" density="0.53" occupancy="0.27" waitingTime="0.00" speed="9.25" departed="6" arrived="0" entered="0" left="4" laneChangedFrom="0" laneChangedTo="0"/>
        <edge id="35" sampledSeconds="2603.00" traveltime="94.95" overlapTraveltime="95.20" density="1.09" occupancy="0.54" waitingTime="0.00" speed="25.16" departed="7" arrived="0" entered="25" left="24" laneChangedFrom="0" laneChangedTo="0"/>
        <edge id="36" sampledSeconds="549.96" traveltime="115.73" overlapTraveltime="118.46" density="0.35" occupancy="0.17" waitingTime="7.00" speed="13.47" departed="4" arrived="0" entered="1" left="4" laneChangedFrom="0" laneChangedTo="0"/>
        <edge id="37" sampledSeconds="8532.38" traveltime="188.71" overlapTraveltime="188.96" density="1.58" occupancy="0.79" waitingTime="0.00" speed="28.56" departed="4" arrived="18" entered="48" left="21" laneChangedFrom="0" laneChangedTo="0"/>
        <edge id="38" sampledSeconds="4464.44" traveltime="189.87" overlapTraveltime="190.59" density="0.83" occupancy="0.41" waitingTime="5.00" speed="28.32" departed="5" arrived="0" entered="21" left="22" laneChangedFrom="0" laneChangedTo="0"/>
        <edge id="39" sampledSeconds="2817.91" traveltime="101.27" overlapTraveltime="101.92" density="1.77" occupancy="0.89" waitingTime="0.00" speed="15.67" departed="8" arrived="0" entered="21" left="27" laneChangedFrom="0" laneChangedTo="0"/>
        <edge id="4" sampledSeconds="1387.22" traveltime="80.74" overlapTraveltime="81.83" density="1.00" occupancy="0.50" waitingTime="7.00" speed="17.07" departed="13" arrived="0" entered="4" left="17" laneChangedFrom="0" laneChangedTo="0"/>
        <edge id="40" sampledSeconds="2751.12" traveltime="278.54" overlapTraveltime="279.18" density="1.06" occupancy="0.53" waitingTime="0.00" speed="9.30" departed="6" arrived="0" entered="6" left="9" laneChangedFrom="0" laneChangedTo="0"/>
        <edge id="41" sampledSeconds="3317.45" traveltime="197.60" overlapTraveltime="198.30" density="1.85" occupancy="0.93" waitingTime="0.00" speed="9.05" departed="9" arrived="0" entered="10" left="15" laneChangedFrom="0" laneChangedTo="0"/>
        <edge id="42" sampledSeconds="692.75" traveltime="129.69" overlapTraveltime="130.33" density="0.58" occupancy="0.29" waitingTime="0.00" speed="9.17" departed="7" arrived="0" entered="0" left="5" laneChangedFrom="0" laneChangedTo="0"/>
        <edge id="43" sampledSeconds="3113.72" traveltime="348.17" overlapTraveltime="349.02" density="1.20" occupancy="0.60" waitingTime="0.00" speed="7.43" departed="11" arrived="0" entered="0" left="7" laneChangedFrom="0" laneChangedTo="0"/>
        <edge id="44" sampledSeconds="1041.34" traveltime="198.36" overlapTraveltime="199.00" density="0.58" occupancy="0.29" waitingTime="0.00" speed="9.02" departed="5" arrived="0" entered="2" left="5" laneChangedFrom="0" laneChangedTo="0"/>
        <edge id="45" sampledSeconds="4037.13" traveltime="128.03" overlapTraveltime="128.42" density="2.03" occupancy="1.01" waitingTime="0.00" speed="15.54" departed="4" arrived="0" entered="31" left="28" laneChangedFrom="0" laneChangedTo="0"/>
        <edge id="46" sampledSeconds="2429.74" traveltime="71.50" overlapTraveltime="72.06" density="2.04" occupancy="1.02" waitingTime="0.00" speed="16.59" departed="5" arrived="0" entered="33" left="29" laneChangedFrom="0" laneChangedTo="0"/>
        <edge id="47" sampledSeconds="2883.71" traveltime="119.47" overlapTraveltime="119.96" density="2.42" occupancy="1.21" waitingTime="0.00" speed="9.97" departed="5" arrived="0" entered="21" left="21" laneChangedFrom="0" laneChangedTo="0"/>
        <edge id="48" sampledSeconds="1675.81" traveltime="173.95" overlapTraveltime="175.50" density="0.85" occupancy="0.42" waitingTime="6.00" speed="11.32" departed="9" arrived="0" entered="2" left="8" laneChangedFrom="0" laneChangedTo="0"/>
        <edge id="49" sampledSeconds="1744.60" traveltime="40.72" overlapTraveltime="41.05" density="1.47" occupancy="0.73" waitingTime="0.00" speed="29.06" departed="10" arrived="0" entered="33" left="42" laneChangedFrom="0" laneChangedTo="0"/>
        <edge id="5" sampledSeconds="1986.27" traveltime="58.55" overlapTraveltime="58.80" density="1.43" occupancy="0.71" waitingTime="0.00" speed="23.76" departed="6" arrived="11" entered="29" left="22" laneChangedFrom="0" laneChangedTo="0"/>
        <edge id="50" sampledSeconds="3580.94" traveltime="159.52" overlapTraveltime="160.35" density="1.80" occupancy="0.90" waitingTime="1.00" speed="12.44" departed="9" arrived="0" entered="14" left="20" laneChangedFrom="0" laneChangedTo="0"/>
        <edge id="51" sampledSeconds="7312.16" traveltime="281.33" overlapTraveltime="282.06" density="3.16" occupancy="1.58" waitingTime="0.00" speed="8.21" departed="3" arrived="0" entered="31" left="21" laneChangedFrom="0" laneChangedTo="0"/>
        <edge id="52" sampledSeconds="462.91" traveltime="45.17" overlapTraveltime="46.49" density="0.39" occupancy="0.19" waitingTime="8.00" speed="25.66" departed="10" arrived="0" entered="0" left="10" laneChangedFrom="0" laneChangedTo="0"/>
        <edge id="53" sampledSeconds="5559.94" traveltime="110.95" overlapTraveltime="111.49" density="3.99" occupancy="2.00" waitingTime="0.00" speed="12.53" departed="11" arrived="0" entered="43" left="43" laneChangedFrom="0" laneChangedTo="0"/>
        <edge id="54" sampledSeconds="1662.54" traveltime="48.66" overlapTraveltime="48.94" density="1.39" occupancy="0.70" waitingTime="0.00" speed="24.46" departed="4" arrived="18" entered="30" left="16" laneChangedFrom="0" laneChangedTo="0"/>
        <edge id="55" sampledSeconds="1601.57" traveltime="163.44" overlapTraveltime="164.32" density="0.81" occupancy="0.40" waitingTime="15.00" speed="12.14" departed="10" arrived="0" entered="1" left="9" laneChangedFrom="0" laneChangedTo="0"/>
        <edge id="56" sampledSeconds="6367.94" traveltime="215.43" overlapTraveltime="215.77" density="1.11" occupancy="0.56" waitingTime="0.00" speed="26.59" departed="9" arrived="6" entered="29" left="15" laneChangedFrom="0" laneChangedTo="0"/>
        <edge id="57" sampledSeconds="2928.11" traveltime="129.67" overlapTraveltime="130.33" density="1.47" occupancy="0.74" waitingTime="9.00" speed="15.31" departed="4" arrived="0" entered="20" left="21" laneChangedFrom="0" laneChangedTo="0"/>
        <edge id="58" sampledSeconds="3678.02" traveltime="110.91" overlapTraveltime="112.03" density="2.64" occupancy="1.32" waitingTime="6.00" speed="12.47" departed="7" arrived="0" entered="27" left="32" laneChangedFrom="0" laneChangedTo="0"/>
        <edge id="59" sampledSeconds="6073.25" traveltime="240.65" overlapTraveltime="241.19" density="2.19" occupancy="1.09" waitingTime="0.00" speed="11.53" departed="5" arrived="11" entered="28" left="7" laneChangedFrom="0" laneChangedTo="0"/>
        <edge id="6" sampledSeconds="1831.40" traveltime="94.87" overlapTraveltime="95.59" density="1.15" occupancy="0.58" waitingTime="6.00" speed="16.69" departed="7" arrived="0" entered="14" left="19" laneChangedFrom="0" laneChangedTo="0"/>
        <edge id="60" sampledSeconds="4526.58" traveltime="215.89" overlapTraveltime="216.48" density="0.79" occupancy="0.39" waitingTime="2.00" speed="26.50" departed="6" arrived="0" entered="18" left="18" laneChangedFrom="0" laneChangedTo="0"/>
        <edge id="61" sampledSeconds="1186.57" traveltime="243.14" overlapTraveltime="243.76" density="0.43" occupancy="0.21" waitingTime="0.00" speed="11.41" departed="4" arrived="0" entered="1" left="4" laneChangedFrom="0" laneChangedTo="0"/>
        <edge id="62" sampledSeconds="4060.42" traveltime="222.89" overlapTraveltime="223.74" density="2.05" occupancy="1.02" waitingTime="12.00" speed="8.89" departed="5" arrived="0" entered="15" left="17" laneChangedFrom="0" laneChangedTo="0"/>
        <edge id="63" sampledSeconds="1848.26" traveltime="218.74" overlapTraveltime="219.56" density="0.73" occupancy="0.36" waitingTime="5.00" speed="11.60" departed="5" arrived="0" entered="4" left="8" laneChangedFrom="0" laneChangedTo="0"/>
        <edge id="64" sampledSeconds="4982.22" traveltime="221.50" overlapTraveltime="222.06" density="2.51" occupancy="1.26" waitingTime="0.00" speed="8.96" departed="4" arrived="8" entered="23" left="8" laneChangedFrom="0" laneChangedTo="0"/>
        <edge id="65" sampledSeconds="3185.98" traveltime="126.87" overlapTraveltime="127.36" density="2.01" occupancy="1.00" waitingTime="0.00" speed="12.50" departed="11" arrived="0" entered="15" left="23" laneChangedFrom="0" laneChangedTo="0"/>
        <edge id="66" sampledSeconds="4401.52" traveltime="127.42" overlapTraveltime="127.79" density="2.46" occupancy="1.23" waitingTime="0.00" speed="14.05" departed="7" arrived="0" entered="30" left="30" laneChangedFrom="0" laneChangedTo="0"/>
        <edge id="67" sampledSeconds="1859.55" traveltime="71.45" overlapTraveltime="72.05" density="1.56" occupancy="0.78" waitingTime="1.00" speed="16.59" departed="8" arrived="0" entered="19" left="24" laneChangedFrom="0" laneChangedTo="0"/>
        <edge id="68" sampledSeconds="6802.56" traveltime="254.48" overlapTraveltime="255.08" density="2.68" occupancy="1.34" waitingTime="1.00" speed="9.99" departed="6" arrived="10" entered="27" left="8" laneChangedFrom="0" laneChangedTo="0"/>
        <edge id="69" sampledSeconds="1876.34" traveltime="60.36" overlapTraveltime="60.73" density="1.18" occupancy="0.59" waitingTime="0.00" speed="26.21" departed="8" arrived="0" entered="25" left="30" laneChangedFrom="0" laneChangedTo="0"/>
        <edge id="7" sampledSeconds="3190.65" traveltime="94.82" overlapTraveltime="95.03" density="1.33" occupancy="0.67" waitingTime="0.00" speed="25.21" departed="5" arrived="0" entered="29" left="32" laneChangedFrom="0" laneChangedTo="0"/>
        <edge id="70" sampledSeconds="947.70" traveltime="174.01" overlapTraveltime="174.70" density="0.53" occupancy="0.26" waitingTime="0.00" speed="10.28" departed="6" arrived="0" entered="0" left="5" laneChangedFrom="0" laneChangedTo="0"/>
        <edge id="71" sampledSeconds="944.72" traveltime="129.68" overlapTraveltime="130.36" density="0.79" occupancy="0.40" waitingTime="0.00" speed="9.17" departed="7" arrived="0" entered="1" left="7" laneChangedFrom="0" laneChangedTo="0"/>
        <edge id="72" sampledSeconds="2455.52" traveltime="173.00" overlapTraveltime="173.76" density="1.37" occupancy="0.69" waitingTime="1.00" speed="10.33" departed="6" arrived="0" entered="11" left="11" laneChangedFrom="0" laneChangedTo="0"/>
        <edge id="73" sampledSeconds="1649.26" traveltime="154.31" overlapTraveltime="154.99" density="1.04" occupancy="0.52" waitingTime="0.00" speed="10.29" departed="7" arrived="0" entered="6" left="9" laneChangedFrom="0" laneChangedTo="0"/>
        <edge id="74" sampledSeconds="4494.85" traveltime="100.39" overlapTraveltime="100.72" density="2.82" occupancy="1.41" waitingTime="0.00" speed="15.86" departed="5" arrived="18" entered="48" left="21" laneChangedFrom="0" laneChangedTo="0"/>
        <edge id="75" sampledSeconds="2997.23" traveltime="129.08" overlapTraveltime="129.89" density="1.67" occupancy="0.84" waitingTime="1.00" speed="13.82" departed="8" arrived="0" entered="17" left="21" laneChangedFrom="0" laneChangedTo="0"/>
        <edge id="76" sampledSeconds="1268.73" traveltime="154.80" overlapTraveltime="155.46" density="0.80" occupancy="0.40" waitingTime="0.00" speed="10.26" departed="8" arrived="0" entered="1" left="8" laneChangedFrom="0" laneChangedTo="0"/>
        <edge id="8" sampledSeconds="3496.96" traveltime="95.65" overlapTraveltime="96.37" density="2.20" occupancy="1.10" waitingTime="1.00" speed="16.56" departed="10" arrived="0" entered="27" left="35" laneChangedFrom="0" laneChangedTo="0"/>
        <edge id="9" sampledSeconds="2167.92" traveltime="84.94" overlapTraveltime="85.33" density="1.21" occupancy="0.61" waitingTime="0.00" speed="21.04" departed="6" arrived="0" entered="20" left="24" laneChangedFrom="0" laneChangedTo="0"/>
    </interval>
    <interval begin="1000.00" end="2000.00" id="2">
        <edge id="1" sampledSeconds="13421.95" traveltime="221.97" overlapTraveltime="222.23" density="2.49" occupancy="1.24" waitingTime="0.00" speed="24.29" departed="8" arrived="41" entered="56" left="17" laneChangedFrom="0" laneChangedTo="0"/>
        <edge id="10" sampledSeconds="2568.73" traveltime="231.94" overlapTraveltime="232.76" density="1.07" occupancy="0.54" waitingTime="0.00" speed="10.29" departed="11" arrived="0" entered="0" left="12" laneChangedFrom="0" laneChangedTo="0"/>
        <edge id="11" sampledSeconds="3630.40" traveltime="85.57" overlapTraveltime="86.00" density="2.03" occupancy="1.01" waitingTime="0.00" speed="20.88" departed="12" arrived="0" entered="32" left="38" laneChangedFrom="0" laneChangedTo="0"/>
        <edge id="12" sampledSeconds="6217.09" traveltime="126.38" overlapTraveltime="127.15" density="3.12" occupancy="1.56" waitingTime="3.00" speed="15.69" departed="4" arrived="0" entered="47" left="47" laneChangedFrom="0" laneChangedTo="0"/>
        <edge id="13" sampledSeconds="691.15" traveltime="132.87" overlapTraveltime="133.54" density="0.58" occupancy="0.29" waitingTime="0.00" speed="8.95" departed="6" arrived="0" entered="0" left="4" laneChangedFrom="0" laneChangedTo="0"/>
        <edge id="14" sampledSeconds="7343.76" traveltime="78.04" overlapTraveltime="78.35" density="5.28" occupancy="2.64" waitingTime="0.00" speed="17.83" departed="8" arrived="35" entered="86" left="56" laneChangedFrom="0" laneChangedTo="0"/>
        <edge id="15" sampledSeconds="3438.53" traveltime="126.11" overlapTraveltime="126.53" density="1.73" occupancy="0.86" waitingTime="0.00" speed="15.77" departed="7" arrived="0" entered="19" left="28" laneChangedFrom="0" laneChangedTo="0"/>
        <edge id="16" sampledSeconds="3191.44" traveltime="63.71" overlapTraveltime="64.48" density="2.68" occupancy="1.34" waitingTime="0.00" speed="18.54" departed="3" arrived="0" entered="47" left="50" laneChangedFrom="0" laneChangedTo="0"/>
        <edge id="17" sampledSeconds="3822.66" traveltime="131.17" overlapTraveltime="132.17" density="1.92" occupancy="0.96" waitingTime="18.00" speed="15.11" departed="8" arrived="0" entered="20" left="30" laneChangedFrom="0" laneChangedTo="0"/>
        <edge id="18" sampledSeconds="1899.48" traveltime="49.21" overlapTraveltime="49.74" density="1.59" occupancy="0.80" waitingTime="0.00" speed="24.06" departed="8" arrived="0" entered="32" left="37" laneChangedFrom="0" laneChangedTo="0"/>
        <edge id="19" sampledSeconds="5301.53" traveltime="63.12" overlapTraveltime="63.52" density="4.45" occupancy="2.23" waitingTime="0.00" speed="18.82" departed="3" arrived="0" entered="81" left="83" laneChangedFrom="0" laneChangedTo="0"/>
        <edge id="2" sampledSeconds="663.50" traveltime="59.74" overlapTraveltime="60.40" density="0.48" occupancy="0.24" waitingTime="1.00" speed="23.13" departed="4" arrived="0" entered="7" left="11" laneChangedFrom="0" laneChangedTo="0"/>
        <edge id="20" sampledSeconds="9791.21" traveltime="128.69" overlapTraveltime="129.03" density="4.92" occupancy="2.46" waitingTime="0.00" speed="15.48" departed="12" arrived="44" entered="62" left="35" laneChangedFrom="0" laneChangedTo="0"/>
        <edge id="21" sampledSeconds="1915.46" traveltime="257.59" overlapTraveltime="258.35" density="0.96" occupancy="0.48" waitingTime="0.00" speed="7.72" departed="7" arrived="0" entered="0" left="7" laneChangedFrom="0" laneChangedTo="0"/>
        <edge id="22" sampledSeconds="4952.50" traveltime="119.59" overlapTraveltime="120.23" density="4.16" occupancy="2.08" waitingTime="0.00" speed="9.94" departed="14" arrived="0" entered="27" left="42" laneChangedFrom="0" laneChangedTo="0"/>
        <edge id="23" sampledSeconds="1641.57" traveltime="131.23" overlapTraveltime="131.87" density="1.38" occupancy="0.69" waitingTime="0.00" speed="9.07" departed="3" arrived="0" entered="9" left="13" laneChangedFrom="0" laneChangedTo="0"/>
        <edge id="24" sampledSeconds="3867.49" traveltime="258.62" overlapTraveltime="259.57" density="1.94" occupancy="0.97" waitingTime="17.00" speed="7.69" departed="11" arrived="0" entered="5" left="13" laneChangedFrom="0" laneChangedTo="0"/>
        <edge id="25" sampledSeconds="2858.67" traveltime="226.08" overlapTraveltime="227.18" density="2.40" occupancy="1.20" waitingTime="0.00" speed="5.26" departed="7" arrived="0" entered="5" left="14" laneChangedFrom="0" laneChangedTo="0"/>
        <edge id="26" sampledSeconds="1784.35" traveltime="226.03" overlapTraveltime="226.92" density="1.50" occupancy="0.75" waitingTime="0.00" speed="5.27" departed="8" arrived="0" entered="0" left="8" laneChangedFrom="0" laneChangedTo="0"/>
        <edge id="27" sampledSeconds="5309.45" traveltime="277.07" overlapTraveltime="277.76" density="2.97" occupancy="1.48" waitingTime="0.00" speed="6.46" departed="4" arrived="0" entered="15" left="20" laneChangedFrom="0" laneChangedTo="0"/>
        <edge id="28" sampledSeconds="8020.06" traveltime="345.30" overlapTraveltime="346.00" density="3.10" occupancy="1.55" waitingTime="0.00" speed="7.49" departed="6" arrived="0" entered="14" left="28" laneChangedFrom="0" laneChangedTo="0"/>
        <edge id="29" sampledSeconds="8173.58" traveltime="173.78" overlapTraveltime="174.73" density="4.12" occupancy="2.06" waitingTime="18.00" speed="11.37" departed="10" arrived="0" entered="38" left="46" laneChangedFrom="0" laneChangedTo="0"/>
        <edge id="3" sampledSeconds="13800.69" traveltime="221.61" overlapTraveltime="222.09" density="2.56" occupancy="1.28" waitingTime="0.00" speed="24.31" departed="7" arrived="39" entered="55" left="25" laneChangedFrom="0" laneChangedTo="0"/>
        <edge id="30" sampledSeconds="2979.22" traveltime="283.41" overlapTraveltime="284.43" density="1.29" occupancy="0.64" waitingTime="5.00" speed="8.15" departed="9" arrived="0" entered="0" left="12" laneChangedFrom="0" laneChangedTo="0"/>
        <edge id="31" sampledSeconds="3233.79" traveltime="230.84" overlapTraveltime="231.51" density="1.35" occupancy="0.68" waitingTime="0.00" speed="10.35" departed="9" arrived="0" entered="6" left="13" laneChangedFrom="0" laneChangedTo="0"/>
        <edge id="32" sampledSeconds="3149.28" traveltime="278.11" overlapTraveltime="278.82" density="1.76" occupancy="0.88" waitingTime="0.00" speed="6.44" departed="8" arrived="0" entered="5" left="11" laneChangedFrom="0" laneChangedTo="0"/>
        <edge id="33" sampledSeconds="4455.56" traveltime="114.56" overlapTraveltime="115.34" density="2.80" occupancy="1.40" waitingTime="7.00" speed="13.83" departed="3" arrived="0" entered="35" left="38" laneChangedFrom="0" laneChangedTo="0"/>
        <edge id="34" sampledSeconds="2074.68" traveltime="278.77" overlapTraveltime="279.47" density="0.80" occupancy="0.40" waitingTime="0.00" speed="9.29" departed="4" arrived="0" entered="5" left="7" laneChangedFrom="0" laneChangedTo="0"/>
        <edge id="35" sampledSeconds="5028.55" traveltime="93.57" overlapTraveltime="93.79" density="2.10" occupancy="1.05" waitingTime="0.00" speed="25.54" departed="5" arrived="0" entered="46" left="54" laneChangedFrom="0" laneChangedTo="0"/>
        <edge id="36" sampledSeconds="1265.30" traveltime="115.33" overlapTraveltime="115.96" density="0.80" occupancy="0.40" waitingTime="0.00" speed="13.76" departed="9" arrived="0" entered="3" left="9" laneChangedFrom="0" laneChangedTo="0"/>
        <edge id="37" sampledSeconds="13042.68" traveltime="188.89" overlapTraveltime="189.10" density="2.42" occupancy="1.21" waitingTime="0.00" speed="28.54" departed="5" arrived="46" entered="62" left="24" laneChangedFrom="0" laneChangedTo="0"/>
        <edge id="38" sampledSeconds="9000.59" traveltime="189.01" overlapTraveltime="189.90" density="1.67" occupancy="0.83" waitingTime="16.00" speed="28.42" departed="3" arrived="0" entered="45" left="46" laneChangedFrom="0" laneChangedTo="0"/>
        <edge id="39" sampledSeconds="3246.83" traveltime="100.40" overlapTraveltime="101.10" density="2.04" occupancy="1.02" waitingTime="3.00" speed="15.80" departed="5" arrived="0" entered="27" left="32" laneChangedFrom="0" laneChangedTo="0"/>
        <edge id="4" sampledSeconds="1758.01" traveltime="78.71" overlapTraveltime="79.46" density="1.26" occupancy="0.63" waitingTime="4.00" speed="17.58" departed="5" arrived="0" entered="18" left="22" laneChangedFrom="0" laneChangedTo="0"/>
        <edge id="40" sampledSeconds="2757.43" traveltime="278.72" overlapTraveltime="279.44" density="1.06" occupancy="0.53" waitingTime="0.00" speed="9.29" departed="5" arrived="0" entered="6" left="10" laneChangedFrom="0" laneChangedTo="0"/>
        <edge id="41" sampledSeconds="5008.94" traveltime="198.02" overlapTraveltime="198.84" density="2.80" occupancy="1.40" waitingTime="6.00" speed="9.03" departed="10" arrived="0" entered="14" left="24" laneChangedFrom="0" laneChangedTo="0"/>
        <edge id="42" sampledSeconds="1513.88" traveltime="129.65" overlapTraveltime="130.32" density="1.27" occupancy="0.64" waitingTime="0.00" speed="9.17" departed="9" arrived="0" entered="1" left="12" laneChangedFrom="0" laneChangedTo="0"/>
        <edge id="43" sampledSeconds="2700.67" traveltime="346.12" overlapTraveltime="346.78" density="1.04" occupancy="0.52" waitingTime="0.00" speed="7.48" departed="8" arrived="0" entered="0" left="8" laneChangedFrom="0" laneChangedTo="0"/>
        <edge id="44" sampledSeconds="1467.79" traveltime="198.41" overlapTraveltime="199.12" density="0.82" occupancy="0.41" waitingTime="0.00" speed="9.02" departed="6" arrived="0" entered="0" left="7" laneChangedFrom="0" laneChangedTo="0"/>
        <edge id="45" sampledSeconds="6908.97" traveltime="127.78" overlapTraveltime="128.17" density="3.47" occupancy="1.74" waitingTime="0.00" speed="15.57" departed="3" arrived="0" entered="52" left="54" laneChangedFrom="0" laneChangedTo="0"/>