<?xml version="1.0" encoding="UTF-8"?>

<!-- generated on 02/12/18 15:36:59 by SUMO Version 0.30.0
<?xml version="1.0" encoding="UTF-8"?>

<configuration xmlns:xsi="http://www.w3.org/2001/XMLSchema-instance" xsi:noNamespaceSchemaLocation="http://sumo.dlr.de/xsd/sumoConfiguration.xsd">

    <input>
        <net-file value="C:/Users/Shekar/Desktop/laptop/sumo_sim/sioux_falls/config/../network/sf_net.net.xml"/>
        <route-files value="C:/Users/Shekar/Desktop/laptop/sumo_sim/sioux_falls/config/../trips/trip.xml"/>
        <additional-files value="C:/Users/Shekar/Desktop/laptop/sumo_sim/sioux_falls/config/additional_24__0_1000.xml"/>
    </input>

    <output>
        <summary-output value="C:/Users/Shekar/Desktop/laptop/sumo_sim/sioux_falls/config/../output/summary_24__0_1000.xml"/>
    </output>

    <processing>
        <time-to-teleport value="300"/>
    </processing>

    <report>
        <log value="C:/Users/Shekar/Desktop/laptop/sumo_sim/sioux_falls/config/../output/report_24__0_1000.xml"/>
    </report>

</configuration>
-->

<meandata xmlns:xsi="http://www.w3.org/2001/XMLSchema-instance" xsi:noNamespaceSchemaLocation="http://sumo.dlr.de/xsd/meandata_file.xsd">
    <interval begin="0.00" end="1000.00" id="1">
        <edge id="1" sampledSeconds="5446.29" traveltime="222.73" overlapTraveltime="223.08" density="1.01" occupancy="0.50" waitingTime="4.00" speed="24.20" departed="6" arrived="10" entered="24" left="8" laneChangedFrom="0" laneChangedTo="0"/>
        <edge id="10" sampledSeconds="1645.94" traveltime="231.66" overlapTraveltime="232.26" density="0.69" occupancy="0.34" waitingTime="0.00" speed="10.31" departed="8" arrived="0" entered="0" left="5" laneChangedFrom="0" laneChangedTo="0"/>
        <edge id="11" sampledSeconds="2227.88" traveltime="84.72" overlapTraveltime="85.02" density="1.24" occupancy="0.62" waitingTime="0.00" speed="21.12" departed="4" arrived="0" entered="23" left="26" laneChangedFrom="0" laneChangedTo="0"/>
        <edge id="12" sampledSeconds="5088.20" traveltime="126.93" overlapTraveltime="127.65" density="2.56" occupancy="1.28" waitingTime="9.00" speed="15.63" departed="5" arrived="0" entered="36" left="39" laneChangedFrom="0" laneChangedTo="0"/>
        <edge id="13" sampledSeconds="1067.15" traveltime="133.14" overlapTraveltime="133.96" density="0.90" occupancy="0.45" waitingTime="0.00" speed="8.92" departed="8" arrived="0" entered="0" left="8" laneChangedFrom="0" laneChangedTo="0"/>
        <edge id="14" sampledSeconds="4314.46" traveltime="78.09" overlapTraveltime="78.37" density="3.10" occupancy="1.55" waitingTime="0.00" speed="17.83" departed="5" arrived="18" entered="56" left="32" laneChangedFrom="0" laneChangedTo="0"/>
        <edge id="15" sampledSeconds="2909.62" traveltime="126.58" overlapTraveltime="127.11" density="1.46" occupancy="0.73" waitingTime="0.00" speed="15.70" departed="10" arrived="0" entered="15" left="21" laneChangedFrom="0" laneChangedTo="0"/>
        <edge id="16" sampledSeconds="2757.17" traveltime="63.82" overlapTraveltime="64.49" density="2.32" occupancy="1.16" waitingTime="0.00" speed="18.54" departed="5" arrived="0" entered="39" left="41" laneChangedFrom="0" laneChangedTo="0"/>
        <edge id="17" sampledSeconds="3328.83" traveltime="130.50" overlapTraveltime="131.17" density="1.67" occupancy="0.84" waitingTime="0.00" speed="15.22" departed="11" arrived="0" entered="17" left="24" laneChangedFrom="0" laneChangedTo="0"/>
        <edge id="18" sampledSeconds="1080.37" traveltime="48.49" overlapTraveltime="49.15" density="0.91" occupancy="0.45" waitingTime="3.00" speed="24.36" departed="4" arrived="0" entered="18" left="22" laneChangedFrom="0" laneChangedTo="0"/>
        <edge id="19" sampledSeconds="3654.67" traveltime="63.64" overlapTraveltime="64.02" density="3.07" occupancy="1.53" waitingTime="0.00" speed="18.67" departed="10" arrived="0" entered="50" left="54" laneChangedFrom="0" laneChangedTo="0"/>
        <edge id="2" sampledSeconds="743.51" traveltime="61.13" overlapTraveltime="62.09" density="0.53" occupancy="0.27" waitingTime="1.00" speed="22.50" departed="7" arrived="0" entered="5" left="12" laneChangedFrom="0" laneChangedTo="0"/>
        <edge id="20" sampledSeconds="4859.06" traveltime="129.31" overlapTraveltime="129.72" density="2.44" occupancy="1.22" waitingTime="0.00" speed="15.40" departed="9" arrived="15" entered="31" left="19" laneChangedFrom="0" laneChangedTo="0"/>
        <edge id="21" sampledSeconds="909.23" traveltime="257.69" overlapTraveltime="258.43" density="0.46" occupancy="0.23" waitingTime="0.00" speed="7.72" departed="4" arrived="0" entered="0" left="3" laneChangedFrom="0" laneChangedTo="0"/>
        <edge id="22" sampledSeconds="3282.42" traveltime="119.17" overlapTraveltime="119.86" density="2.76" occupancy="1.38" waitingTime="3.00" speed="9.97" departed="5" arrived="0" entered="25" left="25" laneChangedFrom="0" laneChangedTo="0"/>
        <edge id="23" sampledSeconds="1896.76" traveltime="131.59" overlapTraveltime="132.33" density="1.59" occupancy="0.80" waitingTime="0.00" speed="9.03" departed="6" arrived="0" entered="10" left="13" laneChangedFrom="0" laneChangedTo="0"/>
        <edge id="24" sampledSeconds="1558.10" traveltime="259.53" overlapTraveltime="260.35" density="0.78" occupancy="0.39" waitingTime="11.00" speed="7.66" departed="6" arrived="0" entered="0" left="6" laneChangedFrom="0" laneChangedTo="0"/>
        <edge id="25" sampledSeconds="2078.37" traveltime="225.39" overlapTraveltime="226.27" density="1.75" occupancy="0.87" waitingTime="0.00" speed="5.28" departed="8" arrived="0" entered="3" left="6" laneChangedFrom="0" laneChangedTo="0"/>
        <edge id="26" sampledSeconds="508.50" traveltime="225.66" overlapTraveltime="226.56" density="0.43" occupancy="0.21" waitingTime="0.00" speed="5.28" departed="2" arrived="0" entered="1" left="2" laneChangedFrom="0" laneChangedTo="0"/>
        <edge id="27" sampledSeconds="2177.89" traveltime="277.45" overlapTraveltime="278.20" density="1.22" occupancy="0.61" waitingTime="0.00" speed="6.45" departed="4" arrived="0" entered="6" left="6" laneChangedFrom="0" laneChangedTo="0"/>
        <edge id="28" sampledSeconds="4767.45" traveltime="346.29" overlapTraveltime="346.99" density="1.84" occupancy="0.92" waitingTime="0.00" speed="7.47" departed="11" arrived="0" entered="10" left="7" laneChangedFrom="0" laneChangedTo="0"/>
        <edge id="29" sampledSeconds="3266.10" traveltime="176.24" overlapTraveltime="177.14" density="1.65" occupancy="0.82" waitingTime="38.00" speed="11.22" departed="4" arrived="0" entered="15" left="17" laneChangedFrom="0" laneChangedTo="0"/>
        <edge id="3" sampledSeconds="6128.35" traveltime="221.67" overlapTraveltime="222.04" density="1.14" occupancy="0.57" waitingTime="1.00" speed="24.31" departed="3" arrived="10" entered="36" left="7" laneChangedFrom="0" laneChangedTo="0"/>
        <edge id="30" sampledSeconds="856.95" traveltime="284.20" overlapTraveltime="284.85" density="0.37" occupancy="0.19" waitingTime="0.00" speed="8.13" departed="6" arrived="0" entered="0" left="1" laneChangedFrom="0" laneChangedTo="0"/>
        <edge id="31" sampledSeconds="1030.89" traveltime="231.95" overlapTraveltime="232.84" density="0.43" occupancy="0.22" waitingTime="2.00" speed="10.29" departed="4" arrived="0" entered="1" left="4" laneChangedFrom="0" laneChangedTo="0"/>
        <edge id="32" sampledSeconds="2373.44" traveltime="277.96" overlapTraveltime="278.69" density="1.33" occupancy="0.66" waitingTime="0.00" speed="6.44" departed="6" arrived="0" entered="3" left="8" laneChangedFrom="0" laneChangedTo="0"/>
        <edge id="33" sampledSeconds="2423.14" traveltime="115.47" overlapTraveltime="116.30" density="1.52" occupancy="0.76" waitingTime="8.00" speed="13.72" departed="4" arrived="0" entered="20" left="19" laneChangedFrom="0" laneChangedTo="0"/>
        <edge id="34" sampledSeconds="1383.63" traveltime="279.63" overlapTraveltime="280.28" density="0.53" occupancy="0.27" waitingTime="0.00" speed="9.26" departed="6" arrived="0" entered="0" left="4" laneChangedFrom="0" laneChangedTo="0"/>
        <edge id="35" sampledSeconds="2511.34" traveltime="95.06" overlapTraveltime="95.33" density="1.05" occupancy="0.53" waitingTime="0.00" speed="25.13" departed="7" arrived="0" entered="24" left="23" laneChangedFrom="0" laneChangedTo="0"/>
        <edge id="36" sampledSeconds="541.87" traveltime="115.59" overlapTraveltime="116.17" density="0.34" occupancy="0.17" waitingTime="0.00" speed="13.73" departed="4" arrived="0" entered="1" left="4" laneChangedFrom="0" laneChangedTo="0"/>
        <edge id="37" sampledSeconds="8370.07" traveltime="188.82" overlapTraveltime="189.07" density="1.55" occupancy="0.78" waitingTime="0.00" speed="28.54" departed="4" arrived="18" entered="47" left="20" laneChangedFrom="0" laneChangedTo="0"/>
        <edge id="38" sampledSeconds="4461.13" traveltime="189.98" overlapTraveltime="190.53" density="0.83" occupancy="0.41" waitingTime="2.00" speed="28.33" departed="5" arrived="0" entered="21" left="22" laneChangedFrom="0" laneChangedTo="0"/>
        <edge id="39" sampledSeconds="2711.58" traveltime="101.13" overlapTraveltime="101.93" density="1.70" occupancy="0.85" waitingTime="2.00" speed="15.67" departed="8" arrived="0" entered="20" left="26" laneChangedFrom="0" laneChangedTo="0"/>
        <edge id="4" sampledSeconds="1373.50" traveltime="80.66" overlapTraveltime="81.02" density="0.99" occupancy="0.49" waitingTime="0.00" speed="17.24" departed="13" arrived="0" entered="4" left="17" laneChangedFrom="0" laneChangedTo="0"/>
        <edge id="40" sampledSeconds="2756.52" traveltime="279.01" overlapTraveltime="279.67" density="1.06" occupancy="0.53" waitingTime="0.00" speed="9.28" departed="6" arrived="0" entered="6" left="9" laneChangedFrom="0" laneChangedTo="0"/>
        <edge id="41" sampledSeconds="3319.88" traveltime="197.70" overlapTraveltime="198.48" density="1.85" occupancy="0.93" waitingTime="0.00" speed="9.05" departed="9" arrived="0" entered="10" left="15" laneChangedFrom="0" laneChangedTo="0"/>
        <edge id="42" sampledSeconds="694.08" traveltime="129.92" overlapTraveltime="130.58" density="0.58" occupancy="0.29" waitingTime="0.00" speed="9.16" departed="7" arrived="0" entered="0" left="5" laneChangedFrom="0" laneChangedTo="0"/>
        <edge id="43" sampledSeconds="3100.24" traveltime="346.67" overlapTraveltime="347.36" density="1.20" occupancy="0.60" waitingTime="0.00" speed="7.46" departed="11" arrived="0" entered="0" left="7" laneChangedFrom="0" laneChangedTo="0"/>
        <edge id="44" sampledSeconds="1039.31" traveltime="198.46" overlapTraveltime="199.10" density="0.58" occupancy="0.29" waitingTime="0.00" speed="9.02" departed="5" arrived="0" entered="2" left="5" laneChangedFrom="0" laneChangedTo="0"/>
        <edge id="45" sampledSeconds="4057.79" traveltime="128.19" overlapTraveltime="128.58" density="2.04" occupancy="1.02" waitingTime="0.00" speed="15.52" departed="4" arrived="0" entered="32" left="28" laneChangedFrom="0" laneChangedTo="0"/>
        <edge id="46" sampledSeconds="2479.57" traveltime="71.55" overlapTraveltime="72.06" density="2.08" occupancy="1.04" waitingTime="0.00" speed="16.59" departed="5" arrived="0" entered="34" left="29" laneChangedFrom="0" laneChangedTo="0"/>
        <edge id="47" sampledSeconds="4734.50" traveltime="119.25" overlapTraveltime="119.74" density="3.98" occupancy="1.99" waitingTime="0.00" speed="9.98" departed="5" arrived="0" entered="37" left="36" laneChangedFrom="0" laneChangedTo="0"/>
        <edge id="48" sampledSeconds="1844.48" traveltime="173.69" overlapTraveltime="174.59" density="0.93" occupancy="0.47" waitingTime="2.00" speed="11.38" departed="9" arrived="0" entered="3" left="9" laneChangedFrom="0" laneChangedTo="0"/>
        <edge id="49" sampledSeconds="1783.97" traveltime="40.66" overlapTraveltime="41.02" density="1.50" occupancy="0.75" waitingTime="0.00" speed="29.08" departed="10" arrived="0" entered="34" left="43" laneChangedFrom="0" laneChangedTo="0"/>
        <edge id="5" sampledSeconds="1990.97" traveltime="58.71" overlapTraveltime="58.96" density="1.43" occupancy="0.72" waitingTime="0.00" speed="23.69" departed="6" arrived="11" entered="29" left="22" laneChangedFrom="0" laneChangedTo="0"/>
        <edge id="50" sampledSeconds="4225.01" traveltime="159.39" overlapTraveltime="160.15" density="2.12" occupancy="1.06" waitingTime="6.00" speed="12.45" departed="9" arrived="0" entered="18" left="26" laneChangedFrom="0" laneChangedTo="0"/>
        <edge id="51" sampledSeconds="614.04" traveltime="282.30" overlapTraveltime="283.00" density="0.27" occupancy="0.13" waitingTime="0.00" speed="8.19" departed="3" arrived="0" entered="0" left="2" laneChangedFrom="0" laneChangedTo="0"/>
        <edge id="52" sampledSeconds="1777.10" traveltime="40.47" overlapTraveltime="40.88" density="1.50" occupancy="0.75" waitingTime="0.00" speed="29.18" departed="10" arrived="0" entered="35" left="41" laneChangedFrom="0" laneChangedTo="0"/>
        <edge id="53" sampledSeconds="5244.14" traveltime="111.05" overlapTraveltime="111.61" density="3.77" occupancy="1.88" waitingTime="0.00" speed="12.52" departed="11" arrived="0" entered="40" left="41" laneChangedFrom="0" laneChangedTo="0"/>
        <edge id="54" sampledSeconds="1651.56" traveltime="48.67" overlapTraveltime="48.94" density="1.39" occupancy="0.69" waitingTime="0.00" speed="24.46" departed="4" arrived="17" entered="30" left="16" laneChangedFrom="0" laneChangedTo="0"/>
        <edge id="55" sampledSeconds="1575.09" traveltime="161.11" overlapTraveltime="161.99" density="0.79" occupancy="0.40" waitingTime="1.00" speed="12.31" departed="10" arrived="0" entered="1" left="9" laneChangedFrom="0" laneChangedTo="0"/>
        <edge id="56" sampledSeconds="6989.78" traveltime="215.29" overlapTraveltime="215.57" density="1.22" occupancy="0.61" waitingTime="0.00" speed="26.62" departed="9" arrived="9" entered="33" left="15" laneChangedFrom="0" laneChangedTo="0"/>
        <edge id="57" sampledSeconds="3070.32" traveltime="129.93" overlapTraveltime="130.72" density="1.54" occupancy="0.77" waitingTime="8.00" speed="15.27" departed="4" arrived="0" entered="22" left="21" laneChangedFrom="0" laneChangedTo="0"/>
        <edge id="58" sampledSeconds="3642.42" traveltime="110.41" overlapTraveltime="110.80" density="2.62" occupancy="1.31" waitingTime="0.00" speed="12.61" departed="7" arrived="0" entered="27" left="32" laneChangedFrom="0" laneChangedTo="0"/>
        <edge id="59" sampledSeconds="5133.50" traveltime="240.72" overlapTraveltime="241.24" density="1.85" occupancy="0.92" waitingTime="1.00" speed="11.53" departed="5" arrived="11" entered="24" left="3" laneChangedFrom="0" laneChangedTo="0"/>
        <edge id="6" sampledSeconds="1823.64" traveltime="94.83" overlapTraveltime="95.17" density="1.15" occupancy="0.57" waitingTime="0.00" speed="16.77" departed="7" arrived="0" entered="14" left="19" laneChangedFrom="0" laneChangedTo="0"/>
        <edge id="60" sampledSeconds="3820.76" traveltime="216.25" overlapTraveltime="216.77" density="0.67" occupancy="0.33" waitingTime="1.00" speed="26.47" departed="6" arrived="0" entered="14" left="16" laneChangedFrom="0" laneChangedTo="0"/>
        <edge id="61" sampledSeconds="1184.35" traveltime="242.35" overlapTraveltime="243.03" density="0.43" occupancy="0.21" waitingTime="0.00" speed="11.44" departed="4" arrived="0" entered="1" left="4" laneChangedFrom="0" laneChangedTo="0"/>
        <edge id="62" sampledSeconds="4056.47" traveltime="222.75" overlapTraveltime="223.59" density="2.04" occupancy="1.02" waitingTime="14.00" speed="8.90" departed="5" arrived="0" entered="15" left="17" laneChangedFrom="0" laneChangedTo="0"/>
        <edge id="63" sampledSeconds="1838.05" traveltime="217.68" overlapTraveltime="218.36" density="0.72" occupancy="0.36" waitingTime="0.00" speed="11.67" departed="5" arrived="0" entered="4" left="8" laneChangedFrom="0" laneChangedTo="0"/>
        <edge id="64" sampledSeconds="4992.42" traveltime="221.48" overlapTraveltime="222.06" density="2.52" occupancy="1.26" waitingTime="0.00" speed="8.96" departed="4" arrived="8" entered="23" left="8" laneChangedFrom="0" laneChangedTo="0"/>
        <edge id="65" sampledSeconds="3080.61" traveltime="126.65" overlapTraveltime="127.10" density="1.94" occupancy="0.97" waitingTime="0.00" speed="12.53" departed="11" arrived="0" entered="14" left="23" laneChangedFrom="0" laneChangedTo="0"/>
        <edge id="66" sampledSeconds="4401.57" traveltime="127.37" overlapTraveltime="127.74" density="2.46" occupancy="1.23" waitingTime="0.00" speed="14.06" departed="7" arrived="0" entered="30" left="30" laneChangedFrom="0" laneChangedTo="0"/>
        <edge id="67" sampledSeconds="1932.12" traveltime="71.39" overlapTraveltime="71.95" density="1.62" occupancy="0.81" waitingTime="2.00" speed="16.62" departed="8" arrived="0" entered="20" left="25" laneChangedFrom="0" laneChangedTo="0"/>
        <edge id="68" sampledSeconds="6710.95" traveltime="254.80" overlapTraveltime="255.40" density="2.64" occupancy="1.32" waitingTime="0.00" speed="9.97" departed="6" arrived="10" entered="26" left="8" laneChangedFrom="0" laneChangedTo="0"/>
        <edge id="69" sampledSeconds="1875.36" traveltime="60.14" overlapTraveltime="60.51" density="1.18" occupancy="0.59" waitingTime="0.00" speed="26.31" departed="8" arrived="0" entered="25" left="30" laneChangedFrom="0" laneChangedTo="0"/>
        <edge id="7" sampledSeconds="3094.54" traveltime="94.88" overlapTraveltime="95.09" density="1.29" occupancy="0.65" waitingTime="0.00" speed="25.19" departed="5" arrived="0" entered="28" left="31" laneChangedFrom="0" laneChangedTo="0"/>
        <edge id="70" sampledSeconds="947.74" traveltime="174.20" overlapTraveltime="174.82" density="0.53" occupancy="0.26" waitingTime="0.00" speed="10.27" departed="6" arrived="0" entered="0" left="5" laneChangedFrom="0" laneChangedTo="0"/>
        <edge id="71" sampledSeconds="944.33" traveltime="129.54" overlapTraveltime="130.25" density="0.79" occupancy="0.40" waitingTime="0.00" speed="9.18" departed="7" arrived="0" entered="1" left="7" laneChangedFrom="0" laneChangedTo="0"/>
        <edge id="72" sampledSeconds="2450.30" traveltime="172.71" overlapTraveltime="173.40" density="1.37" occupancy="0.68" waitingTime="0.00" speed="10.35" departed="6" arrived="0" entered="11" left="11" laneChangedFrom="0" laneChangedTo="0"/>
        <edge id="73" sampledSeconds="1658.92" traveltime="154.94" overlapTraveltime="155.75" density="1.04" occupancy="0.52" waitingTime="6.00" speed="10.24" departed="7" arrived="0" entered="6" left="9" laneChangedFrom="0" laneChangedTo="0"/>
        <edge id="74" sampledSeconds="4497.95" traveltime="100.43" overlapTraveltime="100.76" density="2.83" occupancy="1.41" waitingTime="0.00" speed="15.85" departed="5" arrived="18" entered="48" left="21" laneChangedFrom="0" laneChangedTo="0"/>
        <edge id="75" sampledSeconds="2861.80" traveltime="129.05" overlapTraveltime="129.76" density="1.60" occupancy="0.80" waitingTime="2.00" speed="13.84" departed="8" arrived="0" entered="16" left="20" laneChangedFrom="0" laneChangedTo="0"/>
        <edge id="76" sampledSeconds="1272.84" traveltime="155.12" overlapTraveltime="155.79" density="0.80" occupancy="0.40" waitingTime="0.00" speed="10.24" departed="8" arrived="0" entered="1" left="8" laneChangedFrom="0" laneChangedTo="0"/>
        <edge id="8" sampledSeconds="3586.92" traveltime="95.55" overlapTraveltime="96.24" density="2.26" occupancy="1.13" waitingTime="0.00" speed="16.58" departed="10" arrived="0" entered="28" left="36" laneChangedFrom="0" laneChangedTo="0"/>
        <edge id="9" sampledSeconds="2241.13" traveltime="84.87" overlapTraveltime="85.31" density="1.25" occupancy="0.63" waitingTime="0.00" speed="21.05" departed="6" arrived="0" entered="21" left="25" laneChangedFrom="0" laneChangedTo="0"/>
    </interval>
    <interval begin="1000.00" end="2000.00" id="2">
        <edge id="1" sampledSeconds="13445.13" traveltime="222.56" overlapTraveltime="222.86" density="2.49" occupancy="1.25" waitingTime="11.00" speed="24.22" departed="8" arrived="40" entered="56" left="17" laneChangedFrom="0" laneChangedTo="0"/>
        <edge id="10" sampledSeconds="2564.16" traveltime="231.84" overlapTraveltime="232.69" density="1.07" occupancy="0.54" waitingTime="0.00" speed="10.29" departed="11" arrived="0" entered="0" left="12" laneChangedFrom="0" laneChangedTo="0"/>
        <edge id="11" sampledSeconds="3960.60" traveltime="85.52" overlapTraveltime="85.88" density="2.21" occupancy="1.11" waitingTime="0.00" speed="20.91" departed="12" arrived="0" entered="36" left="43" laneChangedFrom="0" laneChangedTo="0"/>
        <edge id="12" sampledSeconds="6238.32" traveltime="126.79" overlapTraveltime="127.59" density="3.13" occupancy="1.57" waitingTime="21.00" speed="15.64" departed="4" arrived="0" entered="46" left="47" laneChangedFrom="0" laneChangedTo="0"/>
        <edge id="13" sampledSeconds="693.47" traveltime="133.06" overlapTraveltime="133.87" density="0.58" occupancy="0.29" waitingTime="0.00" speed="8.93" departed="6" arrived="0" entered="0" left="4" laneChangedFrom="0" laneChangedTo="0"/>
        <edge id="14" sampledSeconds="6880.50" traveltime="78.16" overlapTraveltime="78.46" density="4.94" occupancy="2.47" waitingTime="0.00" speed="17.80" departed="8" arrived="32" entered="80" left="53" laneChangedFrom="0" laneChangedTo="0"/>
        <edge id="15" sampledSeconds="3932.22" traveltime="125.77" overlapTraveltime="126.18" density="1.98" occupancy="0.99" waitingTime="0.00" speed="15.81" departed="7" arrived="0" entered="23" left="32" laneChangedFrom="0" laneChangedTo="0"/>
        <edge id="16" sampledSeconds="3183.04" traveltime="63.77" overlapTraveltime="64.50" density="2.67" occupancy="1.34" waitingTime="0.00" speed="18.53" departed="3" arrived="0" entered="46" left="49" laneChangedFrom="0" laneChangedTo="0"/>
        <edge id="17" sampledSeconds="3822.82" traveltime="131.15" overlapTraveltime="132.04" density="1.92" occupancy="0.96" waitingTime="24.00" speed="15.12" departed="8" arrived="0" entered="20" left="30" laneChangedFrom="0" laneChangedTo="0"/>
        <edge id="18" sampledSeconds="1845.98" traveltime="49.22" overlapTraveltime="49.80" density="1.55" occupancy="0.77" waitingTime="2.00" speed="24.04" departed="8" arrived="0" entered="31" left="36" laneChangedFrom="0" laneChangedTo="0"/>
        <edge id="19" sampledSeconds="5143.32" traveltime="63.31" overlapTraveltime="63.73" density="4.32" occupancy="2.16" waitingTime="0.00" speed="18.76" departed="3" arrived="0" entered="77" left="81" laneChangedFrom="0" laneChangedTo="0"/>
        <edge id="2" sampledSeconds="667.72" traveltime="59.59" overlapTraveltime="60.78" density="0.48" occupancy="0.24" waitingTime="7.00" speed="22.98" departed="4" arrived="0" entered="7" left="11" laneChangedFrom="0" laneChangedTo="0"/>
        <edge id="20" sampledSeconds="9253.87" traveltime="128.66" overlapTraveltime="129.00" density="4.65" occupancy="2.32" waitingTime="0.00" speed="15.48" departed="12" arrived="40" entered="59" left="34" laneChangedFrom="0" laneChangedTo="0"/>
        <edge id="21" sampledSeconds="1908.70" traveltime="256.55" overlapTraveltime="257.34" density="0.96" occupancy="0.48" waitingTime="0.00" speed="7.75" departed="7" arrived="0" entered="0" left="7" laneChangedFrom="0" laneChangedTo="0"/>
        <edge id="22" sampledSeconds="4999.70" traveltime="119.53" overlapTraveltime="120.10" density="4.20" occupancy="2.10" waitingTime="0.00" speed="9.95" departed="14" arrived="0" entered="28" left="43" laneChangedFrom="0" laneChangedTo="0"/>
        <edge id="23" sampledSeconds="1659.36" traveltime="132.29" overlapTraveltime="133.26" density="1.39" occupancy="0.70" waitingTime="6.00" speed="8.97" departed="3" arrived="0" entered="9" left="13" laneChangedFrom="0" laneChangedTo="0"/>
        <edge id="24" sampledSeconds="3867.05" traveltime="258.68" overlapTraveltime="259.65" density="1.94" occupancy="0.97" waitingTime="14.00" speed="7.69" departed="11" arrived="0" entered="5" left="13" laneChangedFrom="0" laneChangedTo="0"/>
        <edge id="25" sampledSeconds="2862.46" traveltime="226.84" overlapTraveltime="227.83" density="2.40" occupancy="1.20" waitingTime="8.00" speed="5.25" departed="7" arrived="0" entered="5" left="14" laneChangedFrom="0" laneChangedTo="0"/>
        <edge id="26" sampledSeconds="1782.75" traveltime="226.16" overlapTraveltime="227.02" density="1.50" occupancy="0.75" waitingTime="0.00" speed="5.27" departed="8" arrived="0" entered="0" left="8" laneChangedFrom="0" laneChangedTo="0"/>
        <edge id="27" sampledSeconds="3716.88" traveltime="277.93" overlapTraveltime="278.65" density="2.08" occupancy="1.04" waitingTime="0.00" speed="6.44" departed="4" arrived="0" entered="11" left="13" laneChangedFrom="0" laneChangedTo="0"/>
        <edge id="28" sampledSeconds="8006.40" traveltime="345.64" overlapTraveltime="346.33" density="3.09" occupancy="1.55" waitingTime="0.00" speed="7.49" departed="6" arrived="0" entered="14" left="28" laneChangedFrom="0" laneChangedTo="0"/>
        <edge id="29" sampledSeconds="5481.51" traveltime="174.41" overlapTraveltime="175.36" density="2.77" occupancy="1.38" waitingTime="25.00" speed="11.33" departed="10" arrived="0" entered="25" left="29" laneChangedFrom="0" laneChangedTo="0"/>
        <edge id="3" sampledSeconds="13654.86" traveltime="221.71" overlapTraveltime="222.16" density="2.53" occupancy="1.27" waitingTime="0.00" speed="24.30" departed="7" arrived="38" entered="52" left="28" laneChangedFrom="0" laneChangedTo="0"/>
        <edge id="30" sampledSeconds="2974.69" traveltime="283.05" overlapTraveltime="283.89" density="1.29" occupancy="0.64" waitingTime="0.00" speed="8.16" departed="9" arrived="0" entered="0" left="12" laneChangedFrom="0" laneChangedTo="0"/>
        <edge id="31" sampledSeconds="3234.69" traveltime="230.69" overlapTraveltime="231.42" density="1.35" occupancy="0.68" waitingTime="0.00" speed="10.35" departed="9" arrived="0" entered="6" left="13" laneChangedFrom="0" laneChangedTo="0"/>
        <edge id="32" sampledSeconds="2986.24" traveltime="277.79" overlapTraveltime="278.53" density="1.67" occupancy="0.83" waitingTime="0.00" speed="6.45" departed="8" arrived="0" entered="5" left="10" laneChangedFrom="0" laneChangedTo="0"/>
        <edge id="33" sampledSeconds="3653.15" traveltime="114.59" overlapTraveltime="115.35" density="2.30" occupancy="1.15" waitingTime="8.00" speed="13.83" departed="3" arrived="0" entered="28" left="31" laneChangedFrom="0" laneChangedTo="0"/>
        <edge id="34" sampledSeconds="2223.63" traveltime="278.70" overlapTraveltime="279.43" density="0.86" occupancy="0.43" waitingTime="0.00" speed="9.29" departed="4" arrived="0" entered="5" left="8" laneChangedFrom="0" laneChangedTo="0"/>
        <edge id="35" sampledSeconds="4373.33" traveltime="93.33" overlapTraveltime="93.55" density="1.83" occupancy="0.91" waitingTime="0.00" speed="25.61" departed="5" arrived="0" entered="39" left="48" laneChangedFrom="0" laneChangedTo="0"/>
        <edge id="36" sampledSeconds="1262.16" traveltime="115.30" overlapTraveltime="115.86" density="0.79" occupancy="0.40" waitingTime="0.00" speed="13.77" departed="9" arrived="0" entered="3" left="9" laneChangedFrom="0" laneChangedTo="0"/>
        <edge id="37" sampledSeconds="12987.60" traveltime="188.77" overlapTraveltime="188.98" density="2.41" occupancy="1.20" waitingTime="0.00" speed="28.56" departed="5" arrived="46" entered="63" left="24" laneChangedFrom="0" laneChangedTo="0"/>
        <edge id="38" sampledSeconds="9005.69" traveltime="189.00" overlapTraveltime="189.94" density="1.67" occupancy="0.84" waitingTime="19.00" speed="28.41" departed="3" arrived="0" entered="45" left="46" laneChangedFrom="0" laneChangedTo="0"/>
        <edge id="39" sampledSeconds="3257.79" traveltime="100.48" overlapTraveltime="101.08" density="2.05" occupancy="1.02" waitingTime="1.00" speed="15.80" departed="5" arrived="0" entered="27" left="32" laneChangedFrom="0" laneChangedTo="0"/>
        <edge id="4" sampledSeconds="1769.74" traveltime="79.05" overlapTraveltime="79.91" density="1.27" occupancy="0.64" waitingTime="8.00" speed="17.48" departed="5" arrived="0" entered="18" left="21" laneChangedFrom="0" laneChangedTo="0"/>
        <edge id="40" sampledSeconds="2759.72" traveltime="278.55" overlapTraveltime="279.25" density="1.07" occupancy="0.53" waitingTime="0.00" speed="9.29" departed="5" arrived="0" entered="6" left="10" laneChangedFrom="0" laneChangedTo="0"/>
        <edge id="41" sampledSeconds="5207.48" traveltime="197.89" overlapTraveltime="198.76" density="2.91" occupancy="1.45" waitingTime="10.00" speed="9.03" departed="10" arrived="0" entered="15" left="25" laneChangedFrom="0" laneChangedTo="0"/>
        <edge id="42" sampledSeconds="1512.09" traveltime="129.55" overlapTraveltime="130.17" density="1.27" occupancy="0.64" waitingTime="0.00" speed="9.18" departed="9" arrived="0" entered="1" left="12" laneChangedFrom="0" laneChangedTo="0"/>
        <edge id="43" sampledSeconds="2714.94" traveltime="348.40" overlapTraveltime="349.27" density="1.05" occupancy="0.52" waitingTime="9.00" speed="7.42" departed="8" arrived="0" entered="0" left="8" laneChangedFrom="0" laneChangedTo="0"/>
        <edge id="44" sampledSeconds="1471.72" traveltime="198.42" overlapTraveltime="199.24" density="0.82" occupancy="0.41" waitingTime="0.00" speed="9.01" departed="6" arrived="0" entered="0" left="7" laneChangedFrom="0" laneChangedTo="0"/>
        <edge id="45" sampledSeconds="7155.89" traveltime="127.96" overlapTraveltime="128.36" density="3.60" occupancy="1.80" waitingTime="0.00" speed="15.55" departed="3" arrived="0" entered="53" left="56" laneChangedFrom="0" laneChangedTo="0"/>