<?xml version="1.0" encoding="UTF-8"?>

<!-- generated on 02/12/18 15:38:00 by SUMO Version 0.30.0
<?xml version="1.0" encoding="UTF-8"?>

<configuration xmlns:xsi="http://www.w3.org/2001/XMLSchema-instance" xsi:noNamespaceSchemaLocation="http://sumo.dlr.de/xsd/sumoConfiguration.xsd">

    <input>
        <net-file value="C:/Users/Shekar/Desktop/laptop/sumo_sim/sioux_falls/config/../network/sf_net.net.xml"/>
        <route-files value="C:/Users/Shekar/Desktop/laptop/sumo_sim/sioux_falls/config/../trips/trip.xml"/>
        <additional-files value="C:/Users/Shekar/Desktop/laptop/sumo_sim/sioux_falls/config/additional_26__0_1000.xml"/>
    </input>

    <output>
        <summary-output value="C:/Users/Shekar/Desktop/laptop/sumo_sim/sioux_falls/config/../output/summary_26__0_1000.xml"/>
    </output>

    <processing>
        <time-to-teleport value="300"/>
    </processing>

    <report>
        <log value="C:/Users/Shekar/Desktop/laptop/sumo_sim/sioux_falls/config/../output/report_26__0_1000.xml"/>
    </report>

</configuration>
-->

<meandata xmlns:xsi="http://www.w3.org/2001/XMLSchema-instance" xsi:noNamespaceSchemaLocation="http://sumo.dlr.de/xsd/meandata_file.xsd">
    <interval begin="0.00" end="1000.00" id="1">
        <edge id="1" sampledSeconds="5447.78" traveltime="222.62" overlapTraveltime="222.94" density="1.01" occupancy="0.51" waitingTime="6.00" speed="24.22" departed="6" arrived="10" entered="24" left="8" laneChangedFrom="0" laneChangedTo="0"/>
        <edge id="10" sampledSeconds="1647.01" traveltime="231.93" overlapTraveltime="232.60" density="0.69" occupancy="0.34" waitingTime="0.00" speed="10.30" departed="8" arrived="0" entered="0" left="5" laneChangedFrom="0" laneChangedTo="0"/>
        <edge id="11" sampledSeconds="2227.01" traveltime="84.64" overlapTraveltime="84.97" density="1.24" occupancy="0.62" waitingTime="0.00" speed="21.13" departed="4" arrived="0" entered="23" left="26" laneChangedFrom="0" laneChangedTo="0"/>
        <edge id="12" sampledSeconds="4442.59" traveltime="126.74" overlapTraveltime="127.46" density="2.23" occupancy="1.12" waitingTime="8.00" speed="15.66" departed="5" arrived="0" entered="31" left="34" laneChangedFrom="0" laneChangedTo="0"/>
        <edge id="13" sampledSeconds="1063.03" traveltime="132.70" overlapTraveltime="133.45" density="0.89" occupancy="0.45" waitingTime="0.00" speed="8.96" departed="8" arrived="0" entered="0" left="8" laneChangedFrom="0" laneChangedTo="0"/>
        <edge id="14" sampledSeconds="4305.99" traveltime="78.09" overlapTraveltime="78.37" density="3.09" occupancy="1.55" waitingTime="0.00" speed="17.83" departed="5" arrived="18" entered="56" left="32" laneChangedFrom="0" laneChangedTo="0"/>
        <edge id="15" sampledSeconds="2907.57" traveltime="126.53" overlapTraveltime="126.94" density="1.46" occupancy="0.73" waitingTime="0.00" speed="15.72" departed="10" arrived="0" entered="15" left="21" laneChangedFrom="0" laneChangedTo="0"/>
        <edge id="16" sampledSeconds="2497.01" traveltime="63.72" overlapTraveltime="64.39" density="2.10" occupancy="1.05" waitingTime="0.00" speed="18.57" departed="5" arrived="0" entered="35" left="37" laneChangedFrom="0" laneChangedTo="0"/>
        <edge id="17" sampledSeconds="3334.65" traveltime="130.25" overlapTraveltime="130.93" density="1.67" occupancy="0.84" waitingTime="2.00" speed="15.25" departed="11" arrived="0" entered="17" left="24" laneChangedFrom="0" laneChangedTo="0"/>
        <edge id="18" sampledSeconds="1132.09" traveltime="48.58" overlapTraveltime="49.26" density="0.95" occupancy="0.47" waitingTime="3.00" speed="24.30" departed="4" arrived="0" entered="19" left="23" laneChangedFrom="0" laneChangedTo="0"/>
        <edge id="19" sampledSeconds="3717.00" traveltime="63.59" overlapTraveltime="63.98" density="3.12" occupancy="1.56" waitingTime="0.00" speed="18.69" departed="10" arrived="0" entered="50" left="55" laneChangedFrom="0" laneChangedTo="0"/>
        <edge id="2" sampledSeconds="739.38" traveltime="61.13" overlapTraveltime="61.75" density="0.53" occupancy="0.27" waitingTime="0.00" speed="22.62" departed="7" arrived="0" entered="5" left="12" laneChangedFrom="0" laneChangedTo="0"/>
        <edge id="20" sampledSeconds="5071.13" traveltime="129.58" overlapTraveltime="129.98" density="2.55" occupancy="1.27" waitingTime="1.00" speed="15.36" departed="9" arrived="15" entered="35" left="20" laneChangedFrom="0" laneChangedTo="0"/>
        <edge id="21" sampledSeconds="908.30" traveltime="257.31" overlapTraveltime="258.04" density="0.46" occupancy="0.23" waitingTime="0.00" speed="7.73" departed="4" arrived="0" entered="0" left="3" laneChangedFrom="0" laneChangedTo="0"/>
        <edge id="22" sampledSeconds="3094.65" traveltime="119.28" overlapTraveltime="119.76" density="2.60" occupancy="1.30" waitingTime="0.00" speed="9.98" departed="5" arrived="0" entered="23" left="24" laneChangedFrom="0" laneChangedTo="0"/>
        <edge id="23" sampledSeconds="1374.24" traveltime="132.32" overlapTraveltime="133.06" density="1.15" occupancy="0.58" waitingTime="0.00" speed="8.98" departed="6" arrived="0" entered="6" left="9" laneChangedFrom="0" laneChangedTo="0"/>
        <edge id="24" sampledSeconds="2595.30" traveltime="258.74" overlapTraveltime="259.93" density="1.30" occupancy="0.65" waitingTime="13.00" speed="7.68" departed="6" arrived="0" entered="4" left="10" laneChangedFrom="0" laneChangedTo="0"/>
        <edge id="25" sampledSeconds="2085.30" traveltime="226.14" overlapTraveltime="227.04" density="1.75" occupancy="0.88" waitingTime="0.00" speed="5.27" departed="8" arrived="0" entered="3" left="6" laneChangedFrom="0" laneChangedTo="0"/>
        <edge id="26" sampledSeconds="453.04" traveltime="226.63" overlapTraveltime="227.49" density="0.38" occupancy="0.19" waitingTime="0.00" speed="5.26" departed="2" arrived="0" entered="0" left="2" laneChangedFrom="0" laneChangedTo="0"/>
        <edge id="27" sampledSeconds="2238.90" traveltime="277.50" overlapTraveltime="278.29" density="1.25" occupancy="0.63" waitingTime="0.00" speed="6.45" departed="4" arrived="0" entered="7" left="6" laneChangedFrom="0" laneChangedTo="0"/>
        <edge id="28" sampledSeconds="4754.98" traveltime="346.10" overlapTraveltime="346.79" density="1.84" occupancy="0.92" waitingTime="0.00" speed="7.48" departed="11" arrived="0" entered="10" left="7" laneChangedFrom="0" laneChangedTo="0"/>
        <edge id="29" sampledSeconds="3048.47" traveltime="173.92" overlapTraveltime="174.73" density="1.54" occupancy="0.77" waitingTime="9.00" speed="11.37" departed="4" arrived="0" entered="14" left="16" laneChangedFrom="0" laneChangedTo="0"/>
        <edge id="3" sampledSeconds="6127.57" traveltime="221.74" overlapTraveltime="222.02" density="1.14" occupancy="0.57" waitingTime="0.00" speed="24.32" departed="3" arrived="10" entered="36" left="7" laneChangedFrom="0" laneChangedTo="0"/>
        <edge id="30" sampledSeconds="1136.06" traveltime="282.38" overlapTraveltime="282.99" density="0.49" occupancy="0.25" waitingTime="0.00" speed="8.19" departed="6" arrived="0" entered="1" left="2" laneChangedFrom="0" laneChangedTo="0"/>
        <edge id="31" sampledSeconds="1030.99" traveltime="231.93" overlapTraveltime="232.86" density="0.43" occupancy="0.22" waitingTime="2.00" speed="10.29" departed="4" arrived="0" entered="1" left="4" laneChangedFrom="0" laneChangedTo="0"/>
        <edge id="32" sampledSeconds="2372.90" traveltime="277.96" overlapTraveltime="278.68" density="1.33" occupancy="0.66" waitingTime="0.00" speed="6.44" departed="6" arrived="0" entered="3" left="8" laneChangedFrom="0" laneChangedTo="0"/>
        <edge id="33" sampledSeconds="2407.86" traveltime="114.84" overlapTraveltime="115.57" density="1.51" occupancy="0.76" waitingTime="2.00" speed="13.81" departed="4" arrived="0" entered="20" left="19" laneChangedFrom="0" laneChangedTo="0"/>
        <edge id="34" sampledSeconds="1382.98" traveltime="279.46" overlapTraveltime="280.08" density="0.53" occupancy="0.27" waitingTime="0.00" speed="9.27" departed="6" arrived="0" entered="0" left="4" laneChangedFrom="0" laneChangedTo="0"/>
        <edge id="35" sampledSeconds="2523.42" traveltime="94.85" overlapTraveltime="95.13" density="1.06" occupancy="0.53" waitingTime="0.00" speed="25.18" departed="7" arrived="0" entered="24" left="23" laneChangedFrom="0" laneChangedTo="0"/>
        <edge id="36" sampledSeconds="551.34" traveltime="115.37" overlapTraveltime="118.56" density="0.35" occupancy="0.17" waitingTime="9.00" speed="13.46" departed="4" arrived="0" entered="1" left="4" laneChangedFrom="0" laneChangedTo="0"/>
        <edge id="37" sampledSeconds="8547.26" traveltime="188.76" overlapTraveltime="189.01" density="1.59" occupancy="0.79" waitingTime="0.00" speed="28.55" departed="4" arrived="18" entered="48" left="21" laneChangedFrom="0" laneChangedTo="0"/>
        <edge id="38" sampledSeconds="4462.19" traveltime="190.06" overlapTraveltime="190.52" density="0.83" occupancy="0.41" waitingTime="0.00" speed="28.33" departed="5" arrived="0" entered="21" left="22" laneChangedFrom="0" laneChangedTo="0"/>
        <edge id="39" sampledSeconds="2818.92" traveltime="101.17" overlapTraveltime="102.11" density="1.77" occupancy="0.89" waitingTime="2.00" speed="15.64" departed="8" arrived="0" entered="21" left="27" laneChangedFrom="0" laneChangedTo="0"/>
        <edge id="4" sampledSeconds="1374.38" traveltime="80.67" overlapTraveltime="81.07" density="0.99" occupancy="0.49" waitingTime="0.00" speed="17.23" departed="13" arrived="0" entered="4" left="17" laneChangedFrom="0" laneChangedTo="0"/>
        <edge id="40" sampledSeconds="2753.24" traveltime="278.81" overlapTraveltime="279.49" density="1.06" occupancy="0.53" waitingTime="0.00" speed="9.29" departed="6" arrived="0" entered="6" left="9" laneChangedFrom="0" laneChangedTo="0"/>
        <edge id="41" sampledSeconds="3332.38" traveltime="198.29" overlapTraveltime="199.17" density="1.86" occupancy="0.93" waitingTime="8.00" speed="9.01" departed="9" arrived="0" entered="10" left="15" laneChangedFrom="0" laneChangedTo="0"/>
        <edge id="42" sampledSeconds="696.75" traveltime="130.43" overlapTraveltime="131.10" density="0.59" occupancy="0.29" waitingTime="0.00" speed="9.12" departed="7" arrived="0" entered="0" left="5" laneChangedFrom="0" laneChangedTo="0"/>
        <edge id="43" sampledSeconds="3105.39" traveltime="347.06" overlapTraveltime="347.93" density="1.20" occupancy="0.60" waitingTime="1.00" speed="7.45" departed="11" arrived="0" entered="0" left="7" laneChangedFrom="0" laneChangedTo="0"/>
        <edge id="44" sampledSeconds="1042.55" traveltime="198.53" overlapTraveltime="199.25" density="0.58" occupancy="0.29" waitingTime="0.00" speed="9.01" departed="5" arrived="0" entered="2" left="5" laneChangedFrom="0" laneChangedTo="0"/>
        <edge id="45" sampledSeconds="4024.26" traveltime="128.11" overlapTraveltime="128.50" density="2.02" occupancy="1.01" waitingTime="0.00" speed="15.53" departed="4" arrived="0" entered="31" left="28" laneChangedFrom="0" laneChangedTo="0"/>
        <edge id="46" sampledSeconds="2444.50" traveltime="71.45" overlapTraveltime="71.98" density="2.05" occupancy="1.03" waitingTime="0.00" speed="16.61" departed="5" arrived="0" entered="33" left="29" laneChangedFrom="0" laneChangedTo="0"/>
        <edge id="47" sampledSeconds="4868.66" traveltime="119.14" overlapTraveltime="119.62" density="4.09" occupancy="2.04" waitingTime="0.00" speed="9.99" departed="5" arrived="0" entered="38" left="37" laneChangedFrom="0" laneChangedTo="0"/>
        <edge id="48" sampledSeconds="1831.98" traveltime="173.70" overlapTraveltime="174.29" density="0.92" occupancy="0.46" waitingTime="0.00" speed="11.40" departed="9" arrived="0" entered="3" left="9" laneChangedFrom="0" laneChangedTo="0"/>
        <edge id="49" sampledSeconds="1712.67" traveltime="40.88" overlapTraveltime="41.24" density="1.44" occupancy="0.72" waitingTime="0.00" speed="28.93" departed="10" arrived="0" entered="32" left="41" laneChangedFrom="0" laneChangedTo="0"/>
        <edge id="5" sampledSeconds="1985.94" traveltime="58.54" overlapTraveltime="58.80" density="1.43" occupancy="0.71" waitingTime="0.00" speed="23.76" departed="6" arrived="11" entered="29" left="22" laneChangedFrom="0" laneChangedTo="0"/>
        <edge id="50" sampledSeconds="4071.20" traveltime="159.57" overlapTraveltime="160.32" density="2.05" occupancy="1.02" waitingTime="9.00" speed="12.44" departed="9" arrived="0" entered="17" left="25" laneChangedFrom="0" laneChangedTo="0"/>
        <edge id="51" sampledSeconds="616.16" traveltime="283.37" overlapTraveltime="284.06" density="0.27" occupancy="0.13" waitingTime="0.00" speed="8.16" departed="3" arrived="0" entered="0" left="2" laneChangedFrom="0" laneChangedTo="0"/>
        <edge id="52" sampledSeconds="1784.97" traveltime="40.62" overlapTraveltime="41.17" density="1.50" occupancy="0.75" waitingTime="5.00" speed="28.98" departed="10" arrived="0" entered="36" left="41" laneChangedFrom="0" laneChangedTo="0"/>
        <edge id="53" sampledSeconds="5076.32" traveltime="111.12" overlapTraveltime="111.67" density="3.65" occupancy="1.82" waitingTime="0.00" speed="12.51" departed="11" arrived="0" entered="39" left="38" laneChangedFrom="0" laneChangedTo="0"/>
        <edge id="54" sampledSeconds="1661.96" traveltime="48.64" overlapTraveltime="48.91" density="1.39" occupancy="0.70" waitingTime="0.00" speed="24.47" departed="4" arrived="18" entered="30" left="16" laneChangedFrom="0" laneChangedTo="0"/>
        <edge id="55" sampledSeconds="1575.41" traveltime="161.15" overlapTraveltime="162.00" density="0.79" occupancy="0.40" waitingTime="3.00" speed="12.31" departed="10" arrived="0" entered="1" left="9" laneChangedFrom="0" laneChangedTo="0"/>
        <edge id="56" sampledSeconds="7010.51" traveltime="215.45" overlapTraveltime="215.73" density="1.22" occupancy="0.61" waitingTime="0.00" speed="26.60" departed="9" arrived="9" entered="33" left="15" laneChangedFrom="0" laneChangedTo="0"/>
        <edge id="57" sampledSeconds="2917.44" traveltime="129.15" overlapTraveltime="129.77" density="1.47" occupancy="0.73" waitingTime="0.00" speed="15.38" departed="4" arrived="0" entered="20" left="20" laneChangedFrom="0" laneChangedTo="0"/>
        <edge id="58" sampledSeconds="3643.09" traveltime="110.57" overlapTraveltime="110.98" density="2.62" occupancy="1.31" waitingTime="0.00" speed="12.59" departed="7" arrived="0" entered="27" left="32" laneChangedFrom="0" laneChangedTo="0"/>
        <edge id="59" sampledSeconds="5118.50" traveltime="240.65" overlapTraveltime="241.17" density="1.84" occupancy="0.92" waitingTime="0.00" speed="11.53" departed="5" arrived="11" entered="23" left="3" laneChangedFrom="0" laneChangedTo="0"/>
        <edge id="6" sampledSeconds="1822.00" traveltime="94.80" overlapTraveltime="95.15" density="1.15" occupancy="0.57" waitingTime="0.00" speed="16.77" departed="7" arrived="0" entered="14" left="19" laneChangedFrom="0" laneChangedTo="0"/>
        <edge id="60" sampledSeconds="3817.90" traveltime="216.06" overlapTraveltime="216.70" density="0.67" occupancy="0.33" waitingTime="0.00" speed="26.48" departed="6" arrived="0" entered="14" left="16" laneChangedFrom="0" laneChangedTo="0"/>
        <edge id="61" sampledSeconds="1186.78" traveltime="243.12" overlapTraveltime="243.76" density="0.43" occupancy="0.21" waitingTime="0.00" speed="11.41" departed="4" arrived="0" entered="1" left="4" laneChangedFrom="0" laneChangedTo="0"/>
        <edge id="62" sampledSeconds="4056.91" traveltime="222.93" overlapTraveltime="223.78" density="2.04" occupancy="1.02" waitingTime="12.00" speed="8.89" departed="5" arrived="0" entered="15" left="17" laneChangedFrom="0" laneChangedTo="0"/>
        <edge id="63" sampledSeconds="1832.68" traveltime="217.95" overlapTraveltime="218.60" density="0.72" occupancy="0.36" waitingTime="0.00" speed="11.65" departed="5" arrived="0" entered="4" left="8" laneChangedFrom="0" laneChangedTo="0"/>
        <edge id="64" sampledSeconds="4981.34" traveltime="221.44" overlapTraveltime="221.99" density="2.51" occupancy="1.26" waitingTime="0.00" speed="8.96" departed="4" arrived="8" entered="23" left="8" laneChangedFrom="0" laneChangedTo="0"/>
        <edge id="65" sampledSeconds="3184.73" traveltime="126.70" overlapTraveltime="127.17" density="2.01" occupancy="1.00" waitingTime="0.00" speed="12.52" departed="11" arrived="0" entered="15" left="23" laneChangedFrom="0" laneChangedTo="0"/>
        <edge id="66" sampledSeconds="4393.90" traveltime="127.38" overlapTraveltime="127.75" density="2.45" occupancy="1.23" waitingTime="0.00" speed="14.05" departed="7" arrived="0" entered="30" left="30" laneChangedFrom="0" laneChangedTo="0"/>
        <edge id="67" sampledSeconds="1851.25" traveltime="71.39" overlapTraveltime="71.88" density="1.56" occupancy="0.78" waitingTime="0.00" speed="16.63" departed="8" arrived="0" entered="19" left="24" laneChangedFrom="0" laneChangedTo="0"/>
        <edge id="68" sampledSeconds="6816.89" traveltime="254.40" overlapTraveltime="254.95" density="2.68" occupancy="1.34" waitingTime="0.00" speed="9.99" departed="6" arrived="10" entered="27" left="8" laneChangedFrom="0" laneChangedTo="0"/>
        <edge id="69" sampledSeconds="1879.03" traveltime="60.23" overlapTraveltime="60.59" density="1.18" occupancy="0.59" waitingTime="0.00" speed="26.27" departed="8" arrived="0" entered="25" left="30" laneChangedFrom="0" laneChangedTo="0"/>
        <edge id="7" sampledSeconds="3192.57" traveltime="94.99" overlapTraveltime="95.20" density="1.34" occupancy="0.67" waitingTime="0.00" speed="25.16" departed="5" arrived="0" entered="29" left="32" laneChangedFrom="0" laneChangedTo="0"/>
        <edge id="70" sampledSeconds="950.04" traveltime="174.69" overlapTraveltime="175.29" density="0.53" occupancy="0.27" waitingTime="0.00" speed="10.24" departed="6" arrived="0" entered="0" left="5" laneChangedFrom="0" laneChangedTo="0"/>
        <edge id="71" sampledSeconds="943.62" traveltime="129.51" overlapTraveltime="130.18" density="0.79" occupancy="0.40" waitingTime="0.00" speed="9.18" departed="7" arrived="0" entered="1" left="7" laneChangedFrom="0" laneChangedTo="0"/>
        <edge id="72" sampledSeconds="2454.04" traveltime="172.96" overlapTraveltime="173.69" density="1.37" occupancy="0.69" waitingTime="4.00" speed="10.34" departed="6" arrived="0" entered="11" left="11" laneChangedFrom="0" laneChangedTo="0"/>
        <edge id="73" sampledSeconds="1661.98" traveltime="155.40" overlapTraveltime="156.24" density="1.04" occupancy="0.52" waitingTime="6.00" speed="10.21" departed="7" arrived="0" entered="6" left="9" laneChangedFrom="0" laneChangedTo="0"/>
        <edge id="74" sampledSeconds="4518.43" traveltime="100.59" overlapTraveltime="100.92" density="2.84" occupancy="1.42" waitingTime="0.00" speed="15.82" departed="5" arrived="18" entered="48" left="21" laneChangedFrom="0" laneChangedTo="0"/>
        <edge id="75" sampledSeconds="2994.44" traveltime="129.21" overlapTraveltime="130.04" density="1.67" occupancy="0.84" waitingTime="5.00" speed="13.81" departed="8" arrived="0" entered="17" left="21" laneChangedFrom="0" laneChangedTo="0"/>
        <edge id="76" sampledSeconds="1271.30" traveltime="155.03" overlapTraveltime="155.66" density="0.80" occupancy="0.40" waitingTime="0.00" speed="10.25" departed="8" arrived="0" entered="1" left="8" laneChangedFrom="0" laneChangedTo="0"/>
        <edge id="8" sampledSeconds="3684.48" traveltime="95.54" overlapTraveltime="96.24" density="2.32" occupancy="1.16" waitingTime="0.00" speed="16.58" departed="10" arrived="0" entered="29" left="37" laneChangedFrom="0" laneChangedTo="0"/>
        <edge id="9" sampledSeconds="2155.99" traveltime="84.94" overlapTraveltime="85.38" density="1.20" occupancy="0.60" waitingTime="0.00" speed="21.03" departed="6" arrived="0" entered="20" left="24" laneChangedFrom="0" laneChangedTo="0"/>
    </interval>
    <interval begin="1000.00" end="2000.00" id="2">
        <edge id="1" sampledSeconds="13402.59" traveltime="222.02" overlapTraveltime="222.28" density="2.48" occupancy="1.24" waitingTime="0.00" speed="24.29" departed="8" arrived="41" entered="56" left="17" laneChangedFrom="0" laneChangedTo="0"/>
        <edge id="10" sampledSeconds="2562.72" traveltime="231.72" overlapTraveltime="232.46" density="1.07" occupancy="0.54" waitingTime="1.00" speed="10.31" departed="11" arrived="0" entered="0" left="12" laneChangedFrom="0" laneChangedTo="0"/>
        <edge id="11" sampledSeconds="3864.46" traveltime="85.39" overlapTraveltime="85.74" density="2.16" occupancy="1.08" waitingTime="0.00" speed="20.94" departed="12" arrived="0" entered="35" left="41" laneChangedFrom="0" laneChangedTo="0"/>
        <edge id="12" sampledSeconds="6213.08" traveltime="126.27" overlapTraveltime="127.00" density="3.12" occupancy="1.56" waitingTime="5.00" speed="15.71" departed="4" arrived="0" entered="46" left="47" laneChangedFrom="0" laneChangedTo="0"/>
        <edge id="13" sampledSeconds="695.49" traveltime="133.65" overlapTraveltime="134.46" density="0.58" occupancy="0.29" waitingTime="0.00" speed="8.89" departed="6" arrived="0" entered="0" left="4" laneChangedFrom="0" laneChangedTo="0"/>
        <edge id="14" sampledSeconds="6865.99" traveltime="78.04" overlapTraveltime="78.34" density="4.93" occupancy="2.47" waitingTime="0.00" speed="17.83" departed="8" arrived="33" entered="80" left="52" laneChangedFrom="0" laneChangedTo="0"/>
        <edge id="15" sampledSeconds="3934.64" traveltime="125.90" overlapTraveltime="126.29" density="1.98" occupancy="0.99" waitingTime="0.00" speed="15.80" departed="7" arrived="0" entered="23" left="32" laneChangedFrom="0" laneChangedTo="0"/>
        <edge id="16" sampledSeconds="3186.43" traveltime="63.78" overlapTraveltime="64.51" density="2.68" occupancy="1.34" waitingTime="0.00" speed="18.53" departed="3" arrived="0" entered="46" left="50" laneChangedFrom="0" laneChangedTo="0"/>
        <edge id="17" sampledSeconds="3814.71" traveltime="131.26" overlapTraveltime="132.12" density="1.92" occupancy="0.96" waitingTime="24.00" speed="15.12" departed="8" arrived="0" entered="20" left="30" laneChangedFrom="0" laneChangedTo="0"/>
        <edge id="18" sampledSeconds="1912.30" traveltime="49.61" overlapTraveltime="50.50" density="1.60" occupancy="0.80" waitingTime="6.00" speed="23.70" departed="8" arrived="0" entered="31" left="37" laneChangedFrom="0" laneChangedTo="0"/>
        <edge id="19" sampledSeconds="5131.51" traveltime="63.28" overlapTraveltime="63.70" density="4.31" occupancy="2.16" waitingTime="0.00" speed="18.77" departed="3" arrived="0" entered="78" left="81" laneChangedFrom="0" laneChangedTo="0"/>
        <edge id="2" sampledSeconds="665.51" traveltime="59.85" overlapTraveltime="60.58" density="0.48" occupancy="0.24" waitingTime="1.00" speed="23.06" departed="4" arrived="0" entered="7" left="11" laneChangedFrom="0" laneChangedTo="0"/>
        <edge id="20" sampledSeconds="9321.42" traveltime="128.59" overlapTraveltime="128.94" density="4.68" occupancy="2.34" waitingTime="0.00" speed="15.49" departed="12" arrived="40" entered="58" left="34" laneChangedFrom="0" laneChangedTo="0"/>
        <edge id="21" sampledSeconds="1913.71" traveltime="257.47" overlapTraveltime="258.22" density="0.96" occupancy="0.48" waitingTime="0.00" speed="7.73" departed="7" arrived="0" entered="0" left="7" laneChangedFrom="0" laneChangedTo="0"/>
        <edge id="22" sampledSeconds="4964.86" traveltime="119.70" overlapTraveltime="120.30" density="4.17" occupancy="2.09" waitingTime="2.00" speed="9.94" departed="14" arrived="0" entered="28" left="42" laneChangedFrom="0" laneChangedTo="0"/>
        <edge id="23" sampledSeconds="1520.79" traveltime="131.90" overlapTraveltime="132.81" density="1.28" occupancy="0.64" waitingTime="4.00" speed="9.00" departed="3" arrived="0" entered="8" left="12" laneChangedFrom="0" laneChangedTo="0"/>
        <edge id="24" sampledSeconds="3881.57" traveltime="259.82" overlapTraveltime="260.83" density="1.95" occupancy="0.98" waitingTime="23.00" speed="7.65" departed="11" arrived="0" entered="5" left="13" laneChangedFrom="0" laneChangedTo="0"/>
        <edge id="25" sampledSeconds="2884.89" traveltime="228.52" overlapTraveltime="229.52" density="2.42" occupancy="1.21" waitingTime="18.00" speed="5.21" departed="7" arrived="0" entered="5" left="14" laneChangedFrom="0" laneChangedTo="0"/>
        <edge id="26" sampledSeconds="1618.93" traveltime="227.02" overlapTraveltime="227.89" density="1.36" occupancy="0.68" waitingTime="0.00" speed="5.25" departed="8" arrived="0" entered="0" left="7" laneChangedFrom="0" laneChangedTo="0"/>
        <edge id="27" sampledSeconds="3928.05" traveltime="277.46" overlapTraveltime="278.17" density="2.19" occupancy="1.10" waitingTime="0.00" speed="6.45" departed="4" arrived="0" entered="11" left="14" laneChangedFrom="0" laneChangedTo="0"/>
        <edge id="28" sampledSeconds="8005.03" traveltime="345.28" overlapTraveltime="345.96" density="3.09" occupancy="1.55" waitingTime="0.00" speed="7.50" departed="6" arrived="0" entered="14" left="28" laneChangedFrom="0" laneChangedTo="0"/>
        <edge id="29" sampledSeconds="5652.29" traveltime="174.24" overlapTraveltime="175.24" density="2.85" occupancy="1.43" waitingTime="25.00" speed="11.34" departed="10" arrived="0" entered="26" left="30" laneChangedFrom="0" laneChangedTo="0"/>
        <edge id="3" sampledSeconds="13694.00" traveltime="221.82" overlapTraveltime="222.54" density="2.54" occupancy="1.27" waitingTime="10.00" speed="24.26" departed="7" arrived="38" entered="51" left="28" laneChangedFrom="0" laneChangedTo="0"/>
        <edge id="30" sampledSeconds="2972.28" traveltime="282.90" overlapTraveltime="283.86" density="1.29" occupancy="0.64" waitingTime="6.00" speed="8.16" departed="9" arrived="0" entered="0" left="12" laneChangedFrom="0" laneChangedTo="0"/>
        <edge id="31" sampledSeconds="3232.56" traveltime="230.65" overlapTraveltime="231.27" density="1.35" occupancy="0.68" waitingTime="0.00" speed="10.36" departed="9" arrived="0" entered="6" left="13" laneChangedFrom="0" laneChangedTo="0"/>
        <edge id="32" sampledSeconds="3282.93" traveltime="277.96" overlapTraveltime="278.65" density="1.83" occupancy="0.92" waitingTime="0.00" speed="6.44" departed="8" arrived="0" entered="6" left="11" laneChangedFrom="0" laneChangedTo="0"/>
        <edge id="33" sampledSeconds="3772.29" traveltime="114.74" overlapTraveltime="115.52" density="2.37" occupancy="1.19" waitingTime="7.00" speed="13.81" departed="3" arrived="0" entered="29" left="32" laneChangedFrom="0" laneChangedTo="0"/>
        <edge id="34" sampledSeconds="1941.57" traveltime="278.62" overlapTraveltime="279.34" density="0.75" occupancy="0.37" waitingTime="0.00" speed="9.29" departed="4" arrived="0" entered="4" left="7" laneChangedFrom="0" laneChangedTo="0"/>
        <edge id="35" sampledSeconds="4455.69" traveltime="93.48" overlapTraveltime="93.70" density="1.86" occupancy="0.93" waitingTime="0.00" speed="25.57" departed="5" arrived="0" entered="40" left="49" laneChangedFrom="0" laneChangedTo="0"/>
        <edge id="36" sampledSeconds="1263.04" traveltime="115.36" overlapTraveltime="115.96" density="0.79" occupancy="0.40" waitingTime="0.00" speed="13.76" departed="9" arrived="0" entered="3" left="9" laneChangedFrom="0" laneChangedTo="0"/>
        <edge id="37" sampledSeconds="13021.01" traveltime="188.88" overlapTraveltime="189.09" density="2.41" occupancy="1.21" waitingTime="0.00" speed="28.54" departed="5" arrived="46" entered="63" left="24" laneChangedFrom="0" laneChangedTo="0"/>
        <edge id="38" sampledSeconds="9007.56" traveltime="189.03" overlapTraveltime="189.97" density="1.67" occupancy="0.84" waitingTime="18.00" speed="28.41" departed="3" arrived="0" entered="45" left="46" laneChangedFrom="0" laneChangedTo="0"/>
        <edge id="39" sampledSeconds="3262.25" traveltime="100.68" overlapTraveltime="101.39" density="2.05" occupancy="1.02" waitingTime="1.00" speed="15.75" departed="5" arrived="0" entered="27" left="32" laneChangedFrom="0" laneChangedTo="0"/>
        <edge id="4" sampledSeconds="1752.95" traveltime="78.78" overlapTraveltime="79.17" density="1.26" occupancy="0.63" waitingTime="0.00" speed="17.65" departed="5" arrived="0" entered="18" left="22" laneChangedFrom="0" laneChangedTo="0"/>
        <edge id="40" sampledSeconds="2763.47" traveltime="278.68" overlapTraveltime="279.41" density="1.07" occupancy="0.53" waitingTime="0.00" speed="9.29" departed="5" arrived="0" entered="6" left="10" laneChangedFrom="0" laneChangedTo="0"/>
        <edge id="41" sampledSeconds="5020.15" traveltime="198.33" overlapTraveltime="199.17" density="2.80" occupancy="1.40" waitingTime="10.00" speed="9.01" departed="10" arrived="0" entered="14" left="24" laneChangedFrom="0" laneChangedTo="0"/>
        <edge id="42" sampledSeconds="1515.66" traveltime="129.77" overlapTraveltime="130.47" density="1.27" occupancy="0.64" waitingTime="0.00" speed="9.16" departed="9" arrived="0" entered="1" left="12" laneChangedFrom="0" laneChangedTo="0"/>
        <edge id="43" sampledSeconds="2702.70" traveltime="346.67" overlapTraveltime="347.42" density="1.04" occupancy="0.52" waitingTime="0.00" speed="7.46" departed="8" arrived="0" entered="0" left="8" laneChangedFrom="0" laneChangedTo="0"/>
        <edge id="44" sampledSeconds="1465.66" traveltime="197.84" overlapTraveltime="198.66" density="0.82" occupancy="0.41" waitingTime="0.00" speed="9.04" departed="6" arrived="0" entered="0" left="7" laneChangedFrom="0" laneChangedTo="0"/>
        <edge id="45" sampledSeconds="6922.73" traveltime="127.80" overlapTraveltime="128.19" density="3.48" occupancy="1.74" waitingTime="0.00" speed="15.57" departed="3" arrived="0" entered="52" left="54" laneChangedFrom="0" laneChangedTo="0"/>