<?xml version="1.0" encoding="UTF-8"?>

<!-- generated on 02/12/18 15:35:59 by SUMO Version 0.30.0
<?xml version="1.0" encoding="UTF-8"?>

<configuration xmlns:xsi="http://www.w3.org/2001/XMLSchema-instance" xsi:noNamespaceSchemaLocation="http://sumo.dlr.de/xsd/sumoConfiguration.xsd">

    <input>
        <net-file value="C:/Users/Shekar/Desktop/laptop/sumo_sim/sioux_falls/config/../network/sf_net.net.xml"/>
        <route-files value="C:/Users/Shekar/Desktop/laptop/sumo_sim/sioux_falls/config/../trips/trip.xml"/>
        <additional-files value="C:/Users/Shekar/Desktop/laptop/sumo_sim/sioux_falls/config/additional_22__0_1000.xml"/>
    </input>

    <output>
        <summary-output value="C:/Users/Shekar/Desktop/laptop/sumo_sim/sioux_falls/config/../output/summary_22__0_1000.xml"/>
    </output>

    <processing>
        <time-to-teleport value="300"/>
    </processing>

    <report>
        <log value="C:/Users/Shekar/Desktop/laptop/sumo_sim/sioux_falls/config/../output/report_22__0_1000.xml"/>
    </report>

</configuration>
-->

<meandata xmlns:xsi="http://www.w3.org/2001/XMLSchema-instance" xsi:noNamespaceSchemaLocation="http://sumo.dlr.de/xsd/meandata_file.xsd">
    <interval begin="0.00" end="1000.00" id="1">
        <edge id="1" sampledSeconds="5432.02" traveltime="222.14" overlapTraveltime="222.43" density="1.01" occupancy="0.50" waitingTime="0.00" speed="24.27" departed="6" arrived="10" entered="24" left="8" laneChangedFrom="0" laneChangedTo="0"/>
        <edge id="10" sampledSeconds="1641.50" traveltime="231.25" overlapTraveltime="231.85" density="0.69" occupancy="0.34" waitingTime="0.00" speed="10.33" departed="8" arrived="0" entered="0" left="5" laneChangedFrom="0" laneChangedTo="0"/>
        <edge id="11" sampledSeconds="2315.31" traveltime="84.85" overlapTraveltime="85.17" density="1.29" occupancy="0.65" waitingTime="0.00" speed="21.08" departed="4" arrived="0" entered="24" left="27" laneChangedFrom="0" laneChangedTo="0"/>
        <edge id="12" sampledSeconds="4557.29" traveltime="126.42" overlapTraveltime="127.07" density="2.29" occupancy="1.14" waitingTime="0.00" speed="15.70" departed="5" arrived="0" entered="32" left="35" laneChangedFrom="0" laneChangedTo="0"/>
        <edge id="13" sampledSeconds="1058.87" traveltime="132.27" overlapTraveltime="132.93" density="0.89" occupancy="0.44" waitingTime="0.00" speed="8.99" departed="8" arrived="0" entered="0" left="8" laneChangedFrom="0" laneChangedTo="0"/>
        <edge id="14" sampledSeconds="4326.37" traveltime="78.19" overlapTraveltime="78.47" density="3.11" occupancy="1.55" waitingTime="0.00" speed="17.80" departed="5" arrived="18" entered="56" left="32" laneChangedFrom="0" laneChangedTo="0"/>
        <edge id="15" sampledSeconds="3021.70" traveltime="126.66" overlapTraveltime="127.08" density="1.52" occupancy="0.76" waitingTime="0.00" speed="15.70" departed="10" arrived="0" entered="16" left="22" laneChangedFrom="0" laneChangedTo="0"/>
        <edge id="16" sampledSeconds="2584.47" traveltime="64.18" overlapTraveltime="64.99" density="2.17" occupancy="1.09" waitingTime="0.00" speed="18.40" departed="5" arrived="0" entered="36" left="38" laneChangedFrom="0" laneChangedTo="0"/>
        <edge id="17" sampledSeconds="3330.08" traveltime="130.63" overlapTraveltime="131.35" density="1.67" occupancy="0.84" waitingTime="5.00" speed="15.20" departed="11" arrived="0" entered="17" left="24" laneChangedFrom="0" laneChangedTo="0"/>
        <edge id="18" sampledSeconds="2009.14" traveltime="48.06" overlapTraveltime="48.76" density="1.69" occupancy="0.84" waitingTime="14.00" speed="24.55" departed="4" arrived="0" entered="38" left="41" laneChangedFrom="0" laneChangedTo="0"/>
        <edge id="19" sampledSeconds="3784.87" traveltime="63.75" overlapTraveltime="64.20" density="3.18" occupancy="1.59" waitingTime="0.00" speed="18.62" departed="10" arrived="0" entered="51" left="56" laneChangedFrom="0" laneChangedTo="0"/>
        <edge id="2" sampledSeconds="738.23" traveltime="60.87" overlapTraveltime="61.65" density="0.53" occupancy="0.27" waitingTime="0.00" speed="22.66" departed="7" arrived="0" entered="5" left="12" laneChangedFrom="0" laneChangedTo="0"/>
        <edge id="20" sampledSeconds="7681.62" traveltime="128.88" overlapTraveltime="129.23" density="3.86" occupancy="1.93" waitingTime="0.00" speed="15.45" departed="9" arrived="15" entered="58" left="39" laneChangedFrom="0" laneChangedTo="0"/>
        <edge id="21" sampledSeconds="908.41" traveltime="257.14" overlapTraveltime="257.85" density="0.46" occupancy="0.23" waitingTime="0.00" speed="7.74" departed="4" arrived="0" entered="0" left="3" laneChangedFrom="0" laneChangedTo="0"/>
        <edge id="22" sampledSeconds="614.00" traveltime="121.20" overlapTraveltime="123.33" density="0.52" occupancy="0.26" waitingTime="5.00" speed="9.69" departed="5" arrived="0" entered="0" left="5" laneChangedFrom="0" laneChangedTo="0"/>
        <edge id="23" sampledSeconds="1369.38" traveltime="131.73" overlapTraveltime="132.47" density="1.15" occupancy="0.58" waitingTime="1.00" speed="9.02" departed="6" arrived="0" entered="6" left="9" laneChangedFrom="0" laneChangedTo="0"/>
        <edge id="24" sampledSeconds="2854.73" traveltime="258.78" overlapTraveltime="259.88" density="1.43" occupancy="0.72" waitingTime="14.00" speed="7.68" departed="6" arrived="0" entered="5" left="11" laneChangedFrom="0" laneChangedTo="0"/>
        <edge id="25" sampledSeconds="1858.82" traveltime="226.20" overlapTraveltime="227.13" density="1.56" occupancy="0.78" waitingTime="0.00" speed="5.26" departed="8" arrived="0" entered="2" left="5" laneChangedFrom="0" laneChangedTo="0"/>
        <edge id="26" sampledSeconds="510.11" traveltime="226.72" overlapTraveltime="227.64" density="0.43" occupancy="0.21" waitingTime="0.00" speed="5.25" departed="2" arrived="0" entered="1" left="2" laneChangedFrom="0" laneChangedTo="0"/>
        <edge id="27" sampledSeconds="2185.27" traveltime="278.28" overlapTraveltime="279.01" density="1.22" occupancy="0.61" waitingTime="0.00" speed="6.44" departed="4" arrived="0" entered="6" left="6" laneChangedFrom="0" laneChangedTo="0"/>
        <edge id="28" sampledSeconds="4764.30" traveltime="346.41" overlapTraveltime="347.09" density="1.84" occupancy="0.92" waitingTime="0.00" speed="7.47" departed="11" arrived="0" entered="10" left="7" laneChangedFrom="0" laneChangedTo="0"/>
        <edge id="29" sampledSeconds="2881.14" traveltime="174.51" overlapTraveltime="175.34" density="1.45" occupancy="0.73" waitingTime="19.00" speed="11.33" departed="4" arrived="0" entered="13" left="15" laneChangedFrom="0" laneChangedTo="0"/>
        <edge id="3" sampledSeconds="6135.00" traveltime="221.58" overlapTraveltime="221.86" density="1.14" occupancy="0.57" waitingTime="0.00" speed="24.33" departed="3" arrived="10" entered="36" left="7" laneChangedFrom="0" laneChangedTo="0"/>
        <edge id="30" sampledSeconds="1138.33" traveltime="283.68" overlapTraveltime="284.39" density="0.49" occupancy="0.25" waitingTime="0.00" speed="8.15" departed="6" arrived="0" entered="1" left="2" laneChangedFrom="0" laneChangedTo="0"/>
        <edge id="31" sampledSeconds="1028.42" traveltime="231.51" overlapTraveltime="232.38" density="0.43" occupancy="0.22" waitingTime="1.00" speed="10.31" departed="4" arrived="0" entered="1" left="4" laneChangedFrom="0" laneChangedTo="0"/>
        <edge id="32" sampledSeconds="2373.51" traveltime="278.01" overlapTraveltime="278.77" density="1.33" occupancy="0.66" waitingTime="0.00" speed="6.44" departed="6" arrived="0" entered="3" left="8" laneChangedFrom="0" laneChangedTo="0"/>
        <edge id="33" sampledSeconds="2410.00" traveltime="114.85" overlapTraveltime="115.59" density="1.52" occupancy="0.76" waitingTime="2.00" speed="13.80" departed="4" arrived="0" entered="20" left="19" laneChangedFrom="0" laneChangedTo="0"/>
        <edge id="34" sampledSeconds="1382.76" traveltime="279.47" overlapTraveltime="280.14" density="0.53" occupancy="0.27" waitingTime="0.00" speed="9.26" departed="6" arrived="0" entered="0" left="4" laneChangedFrom="0" laneChangedTo="0"/>
        <edge id="35" sampledSeconds="2529.40" traveltime="95.05" overlapTraveltime="95.32" density="1.06" occupancy="0.53" waitingTime="0.00" speed="25.13" departed="7" arrived="0" entered="24" left="23" laneChangedFrom="0" laneChangedTo="0"/>
        <edge id="36" sampledSeconds="544.85" traveltime="115.64" overlapTraveltime="117.09" density="0.34" occupancy="0.17" waitingTime="2.00" speed="13.63" departed="4" arrived="0" entered="1" left="4" laneChangedFrom="0" laneChangedTo="0"/>
        <edge id="37" sampledSeconds="8548.08" traveltime="188.89" overlapTraveltime="189.13" density="1.59" occupancy="0.79" waitingTime="0.00" speed="28.54" departed="4" arrived="18" entered="48" left="21" laneChangedFrom="0" laneChangedTo="0"/>
        <edge id="38" sampledSeconds="4444.49" traveltime="189.71" overlapTraveltime="190.02" density="0.82" occupancy="0.41" waitingTime="0.00" speed="28.40" departed="5" arrived="0" entered="21" left="22" laneChangedFrom="0" laneChangedTo="0"/>
        <edge id="39" sampledSeconds="2806.08" traveltime="101.17" overlapTraveltime="101.78" density="1.76" occupancy="0.88" waitingTime="0.00" speed="15.69" departed="8" arrived="0" entered="21" left="26" laneChangedFrom="0" laneChangedTo="0"/>
        <edge id="4" sampledSeconds="1386.37" traveltime="80.73" overlapTraveltime="81.78" density="1.00" occupancy="0.50" waitingTime="6.00" speed="17.08" departed="13" arrived="0" entered="4" left="17" laneChangedFrom="0" laneChangedTo="0"/>
        <edge id="40" sampledSeconds="2758.25" traveltime="279.25" overlapTraveltime="279.95" density="1.06" occupancy="0.53" waitingTime="0.00" speed="9.27" departed="6" arrived="0" entered="6" left="9" laneChangedFrom="0" laneChangedTo="0"/>
        <edge id="41" sampledSeconds="3316.30" traveltime="197.56" overlapTraveltime="198.24" density="1.85" occupancy="0.93" waitingTime="0.00" speed="9.06" departed="9" arrived="0" entered="10" left="15" laneChangedFrom="0" laneChangedTo="0"/>
        <edge id="42" sampledSeconds="696.14" traveltime="130.12" overlapTraveltime="130.84" density="0.58" occupancy="0.29" waitingTime="0.00" speed="9.14" departed="7" arrived="0" entered="0" left="5" laneChangedFrom="0" laneChangedTo="0"/>
        <edge id="43" sampledSeconds="3106.70" traveltime="347.41" overlapTraveltime="348.18" density="1.20" occupancy="0.60" waitingTime="0.00" speed="7.45" departed="11" arrived="0" entered="0" left="7" laneChangedFrom="0" laneChangedTo="0"/>
        <edge id="44" sampledSeconds="1038.54" traveltime="198.59" overlapTraveltime="199.26" density="0.58" occupancy="0.29" waitingTime="0.00" speed="9.01" departed="5" arrived="0" entered="2" left="5" laneChangedFrom="0" laneChangedTo="0"/>
        <edge id="45" sampledSeconds="4062.81" traveltime="127.99" overlapTraveltime="128.38" density="2.04" occupancy="1.02" waitingTime="0.00" speed="15.54" departed="4" arrived="0" entered="32" left="28" laneChangedFrom="0" laneChangedTo="0"/>
        <edge id="46" sampledSeconds="2226.85" traveltime="71.64" overlapTraveltime="72.15" density="1.87" occupancy="0.94" waitingTime="0.00" speed="16.57" departed="5" arrived="0" entered="31" left="26" laneChangedFrom="0" laneChangedTo="0"/>
        <edge id="47" sampledSeconds="4731.28" traveltime="119.00" overlapTraveltime="119.50" density="3.97" occupancy="1.99" waitingTime="0.00" speed="10.00" departed="5" arrived="0" entered="37" left="36" laneChangedFrom="0" laneChangedTo="0"/>
        <edge id="48" sampledSeconds="1840.25" traveltime="174.05" overlapTraveltime="174.72" density="0.93" occupancy="0.46" waitingTime="0.00" speed="11.37" departed="9" arrived="0" entered="3" left="9" laneChangedFrom="0" laneChangedTo="0"/>
        <edge id="49" sampledSeconds="1215.14" traveltime="41.59" overlapTraveltime="41.96" density="1.02" occupancy="0.51" waitingTime="0.00" speed="28.43" departed="10" arrived="0" entered="19" left="29" laneChangedFrom="0" laneChangedTo="0"/>
        <edge id="5" sampledSeconds="1986.24" traveltime="58.63" overlapTraveltime="58.87" density="1.43" occupancy="0.71" waitingTime="0.00" speed="23.73" departed="6" arrived="11" entered="29" left="22" laneChangedFrom="0" laneChangedTo="0"/>
        <edge id="50" sampledSeconds="4079.48" traveltime="159.71" overlapTraveltime="160.64" density="2.05" occupancy="1.03" waitingTime="2.00" speed="12.41" departed="9" arrived="0" entered="17" left="25" laneChangedFrom="0" laneChangedTo="0"/>
        <edge id="51" sampledSeconds="611.09" traveltime="282.89" overlapTraveltime="283.56" density="0.26" occupancy="0.13" waitingTime="0.00" speed="8.17" departed="3" arrived="0" entered="0" left="2" laneChangedFrom="0" laneChangedTo="0"/>
        <edge id="52" sampledSeconds="1789.07" traveltime="40.46" overlapTraveltime="40.93" density="1.51" occupancy="0.75" waitingTime="0.00" speed="29.14" departed="10" arrived="0" entered="36" left="41" laneChangedFrom="0" laneChangedTo="0"/>
        <edge id="53" sampledSeconds="3786.06" traveltime="111.16" overlapTraveltime="111.68" density="2.72" occupancy="1.36" waitingTime="0.00" speed="12.51" departed="11" arrived="0" entered="27" left="29" laneChangedFrom="0" laneChangedTo="0"/>
        <edge id="54" sampledSeconds="1668.24" traveltime="48.82" overlapTraveltime="49.10" density="1.40" occupancy="0.70" waitingTime="0.00" speed="24.38" departed="4" arrived="18" entered="30" left="16" laneChangedFrom="0" laneChangedTo="0"/>
        <edge id="55" sampledSeconds="2727.49" traveltime="160.87" overlapTraveltime="161.67" density="1.37" occupancy="0.69" waitingTime="16.00" speed="12.33" departed="10" arrived="0" entered="10" left="15" laneChangedFrom="0" laneChangedTo="0"/>
        <edge id="56" sampledSeconds="8211.25" traveltime="215.04" overlapTraveltime="215.34" density="1.43" occupancy="0.72" waitingTime="1.00" speed="26.64" departed="9" arrived="9" entered="42" left="18" laneChangedFrom="0" laneChangedTo="0"/>
        <edge id="57" sampledSeconds="2433.65" traveltime="129.64" overlapTraveltime="130.42" density="1.22" occupancy="0.61" waitingTime="2.00" speed="15.30" departed="4" arrived="0" entered="15" left="18" laneChangedFrom="0" laneChangedTo="0"/>
        <edge id="58" sampledSeconds="3646.52" traveltime="110.53" overlapTraveltime="110.94" density="2.62" occupancy="1.31" waitingTime="0.00" speed="12.59" departed="7" arrived="0" entered="27" left="32" laneChangedFrom="0" laneChangedTo="0"/>
        <edge id="59" sampledSeconds="4409.62" traveltime="240.86" overlapTraveltime="241.36" density="1.59" occupancy="0.79" waitingTime="0.00" speed="11.52" departed="5" arrived="8" entered="19" left="3" laneChangedFrom="0" laneChangedTo="0"/>
        <edge id="6" sampledSeconds="1824.05" traveltime="94.82" overlapTraveltime="95.15" density="1.15" occupancy="0.57" waitingTime="0.00" speed="16.77" departed="7" arrived="0" entered="14" left="19" laneChangedFrom="0" laneChangedTo="0"/>
        <edge id="60" sampledSeconds="3816.21" traveltime="216.18" overlapTraveltime="216.53" density="0.67" occupancy="0.33" waitingTime="0.00" speed="26.50" departed="6" arrived="0" entered="14" left="16" laneChangedFrom="0" laneChangedTo="0"/>
        <edge id="61" sampledSeconds="1186.25" traveltime="242.95" overlapTraveltime="243.60" density="0.43" occupancy="0.21" waitingTime="0.00" speed="11.41" departed="4" arrived="0" entered="1" left="4" laneChangedFrom="0" laneChangedTo="0"/>
        <edge id="62" sampledSeconds="4211.49" traveltime="222.86" overlapTraveltime="223.74" density="2.12" occupancy="1.06" waitingTime="14.00" speed="8.89" departed="5" arrived="0" entered="16" left="17" laneChangedFrom="0" laneChangedTo="0"/>
        <edge id="63" sampledSeconds="1976.64" traveltime="217.83" overlapTraveltime="218.53" density="0.78" occupancy="0.39" waitingTime="0.00" speed="11.66" departed="5" arrived="0" entered="6" left="8" laneChangedFrom="0" laneChangedTo="0"/>
        <edge id="64" sampledSeconds="4962.22" traveltime="221.31" overlapTraveltime="221.88" density="2.50" occupancy="1.25" waitingTime="0.00" speed="8.97" departed="4" arrived="8" entered="22" left="8" laneChangedFrom="0" laneChangedTo="0"/>
        <edge id="65" sampledSeconds="3086.55" traveltime="126.80" overlapTraveltime="127.28" density="1.94" occupancy="0.97" waitingTime="0.00" speed="12.51" departed="11" arrived="0" entered="14" left="23" laneChangedFrom="0" laneChangedTo="0"/>
        <edge id="66" sampledSeconds="4278.60" traveltime="127.51" overlapTraveltime="127.88" density="2.39" occupancy="1.19" waitingTime="0.00" speed="14.04" departed="7" arrived="0" entered="29" left="29" laneChangedFrom="0" laneChangedTo="0"/>
        <edge id="67" sampledSeconds="1930.23" traveltime="71.19" overlapTraveltime="72.04" density="1.62" occupancy="0.81" waitingTime="7.00" speed="16.60" departed="8" arrived="0" entered="20" left="25" laneChangedFrom="0" laneChangedTo="0"/>
        <edge id="68" sampledSeconds="6684.20" traveltime="254.62" overlapTraveltime="255.22" density="2.63" occupancy="1.31" waitingTime="1.00" speed="9.98" departed="6" arrived="10" entered="25" left="8" laneChangedFrom="0" laneChangedTo="0"/>
        <edge id="69" sampledSeconds="1760.12" traveltime="60.40" overlapTraveltime="60.75" density="1.11" occupancy="0.55" waitingTime="0.00" speed="26.20" departed="8" arrived="0" entered="23" left="28" laneChangedFrom="0" laneChangedTo="0"/>
        <edge id="7" sampledSeconds="3188.75" traveltime="95.00" overlapTraveltime="95.22" density="1.33" occupancy="0.67" waitingTime="0.00" speed="25.16" departed="5" arrived="0" entered="29" left="32" laneChangedFrom="0" laneChangedTo="0"/>
        <edge id="70" sampledSeconds="947.73" traveltime="174.07" overlapTraveltime="174.77" density="0.53" occupancy="0.26" waitingTime="0.00" speed="10.27" departed="6" arrived="0" entered="0" left="5" laneChangedFrom="0" laneChangedTo="0"/>
        <edge id="71" sampledSeconds="943.38" traveltime="129.49" overlapTraveltime="130.14" density="0.79" occupancy="0.40" waitingTime="0.00" speed="9.19" departed="7" arrived="0" entered="1" left="7" laneChangedFrom="0" laneChangedTo="0"/>
        <edge id="72" sampledSeconds="2461.21" traveltime="173.51" overlapTraveltime="174.20" density="1.37" occupancy="0.69" waitingTime="10.00" speed="10.31" departed="6" arrived="0" entered="11" left="11" laneChangedFrom="0" laneChangedTo="0"/>
        <edge id="73" sampledSeconds="1655.37" traveltime="154.72" overlapTraveltime="155.49" density="1.04" occupancy="0.52" waitingTime="1.00" speed="10.26" departed="7" arrived="0" entered="6" left="9" laneChangedFrom="0" laneChangedTo="0"/>
        <edge id="74" sampledSeconds="4421.53" traveltime="100.46" overlapTraveltime="100.79" density="2.78" occupancy="1.39" waitingTime="0.00" speed="15.84" departed="5" arrived="18" entered="47" left="21" laneChangedFrom="0" laneChangedTo="0"/>
        <edge id="75" sampledSeconds="2872.49" traveltime="129.19" overlapTraveltime="129.98" density="1.60" occupancy="0.80" waitingTime="5.00" speed="13.81" departed="8" arrived="0" entered="16" left="20" laneChangedFrom="0" laneChangedTo="0"/>
        <edge id="76" sampledSeconds="1274.84" traveltime="155.18" overlapTraveltime="155.85" density="0.80" occupancy="0.40" waitingTime="0.00" speed="10.24" departed="8" arrived="0" entered="1" left="8" laneChangedFrom="0" laneChangedTo="0"/>
        <edge id="8" sampledSeconds="3686.57" traveltime="95.56" overlapTraveltime="96.26" density="2.32" occupancy="1.16" waitingTime="4.00" speed="16.57" departed="10" arrived="0" entered="29" left="37" laneChangedFrom="0" laneChangedTo="0"/>
        <edge id="9" sampledSeconds="2255.26" traveltime="85.02" overlapTraveltime="85.47" density="1.26" occupancy="0.63" waitingTime="0.00" speed="21.01" departed="6" arrived="0" entered="21" left="25" laneChangedFrom="0" laneChangedTo="0"/>
    </interval>
    <interval begin="1000.00" end="2000.00" id="2">
        <edge id="1" sampledSeconds="13409.31" traveltime="222.04" overlapTraveltime="222.29" density="2.49" occupancy="1.24" waitingTime="0.00" speed="24.29" departed="8" arrived="40" entered="56" left="17" laneChangedFrom="0" laneChangedTo="0"/>
        <edge id="10" sampledSeconds="2560.28" traveltime="231.45" overlapTraveltime="232.18" density="1.07" occupancy="0.54" waitingTime="0.00" speed="10.32" departed="11" arrived="0" entered="0" left="12" laneChangedFrom="0" laneChangedTo="0"/>
        <edge id="11" sampledSeconds="3948.07" traveltime="85.57" overlapTraveltime="85.90" density="2.21" occupancy="1.10" waitingTime="0.00" speed="20.90" departed="12" arrived="0" entered="36" left="42" laneChangedFrom="0" laneChangedTo="0"/>
        <edge id="12" sampledSeconds="6353.80" traveltime="126.59" overlapTraveltime="127.36" density="3.19" occupancy="1.60" waitingTime="13.00" speed="15.67" departed="4" arrived="0" entered="48" left="48" laneChangedFrom="0" laneChangedTo="0"/>
        <edge id="13" sampledSeconds="694.09" traveltime="133.36" overlapTraveltime="134.10" density="0.58" occupancy="0.29" waitingTime="0.00" speed="8.91" departed="6" arrived="0" entered="0" left="4" laneChangedFrom="0" laneChangedTo="0"/>
        <edge id="14" sampledSeconds="6834.60" traveltime="78.08" overlapTraveltime="78.38" density="4.91" occupancy="2.45" waitingTime="0.00" speed="17.82" departed="8" arrived="33" entered="80" left="51" laneChangedFrom="0" laneChangedTo="0"/>
        <edge id="15" sampledSeconds="3952.73" traveltime="125.78" overlapTraveltime="126.34" density="1.99" occupancy="0.99" waitingTime="2.00" speed="15.80" departed="7" arrived="0" entered="23" left="32" laneChangedFrom="0" laneChangedTo="0"/>
        <edge id="16" sampledSeconds="3248.49" traveltime="63.73" overlapTraveltime="64.49" density="2.73" occupancy="1.36" waitingTime="0.00" speed="18.54" departed="3" arrived="0" entered="47" left="51" laneChangedFrom="0" laneChangedTo="0"/>
        <edge id="17" sampledSeconds="3825.99" traveltime="131.17" overlapTraveltime="132.06" density="1.92" occupancy="0.96" waitingTime="25.00" speed="15.12" departed="8" arrived="0" entered="20" left="30" laneChangedFrom="0" laneChangedTo="0"/>
        <edge id="18" sampledSeconds="2231.60" traveltime="49.13" overlapTraveltime="49.73" density="1.87" occupancy="0.94" waitingTime="1.00" speed="24.07" departed="8" arrived="0" entered="38" left="44" laneChangedFrom="0" laneChangedTo="0"/>
        <edge id="19" sampledSeconds="5141.39" traveltime="63.29" overlapTraveltime="63.71" density="4.32" occupancy="2.16" waitingTime="0.00" speed="18.77" departed="3" arrived="0" entered="78" left="81" laneChangedFrom="0" laneChangedTo="0"/>
        <edge id="2" sampledSeconds="659.59" traveltime="59.67" overlapTraveltime="60.04" density="0.47" occupancy="0.24" waitingTime="0.00" speed="23.27" departed="4" arrived="0" entered="7" left="11" laneChangedFrom="0" laneChangedTo="0"/>
        <edge id="20" sampledSeconds="9917.13" traveltime="128.68" overlapTraveltime="129.03" density="4.98" occupancy="2.49" waitingTime="0.00" speed="15.48" departed="12" arrived="40" entered="60" left="41" laneChangedFrom="0" laneChangedTo="0"/>
        <edge id="21" sampledSeconds="1913.41" traveltime="257.51" overlapTraveltime="258.36" density="0.96" occupancy="0.48" waitingTime="0.00" speed="7.72" departed="7" arrived="0" entered="0" left="7" laneChangedFrom="0" laneChangedTo="0"/>
        <edge id="22" sampledSeconds="4579.28" traveltime="119.66" overlapTraveltime="120.20" density="3.85" occupancy="1.92" waitingTime="0.00" speed="9.95" departed="14" arrived="0" entered="27" left="37" laneChangedFrom="0" laneChangedTo="0"/>
        <edge id="23" sampledSeconds="1656.65" traveltime="132.21" overlapTraveltime="133.14" density="1.39" occupancy="0.70" waitingTime="7.00" speed="8.98" departed="3" arrived="0" entered="9" left="13" laneChangedFrom="0" laneChangedTo="0"/>
        <edge id="24" sampledSeconds="3880.05" traveltime="259.65" overlapTraveltime="260.66" density="1.95" occupancy="0.97" waitingTime="31.00" speed="7.66" departed="11" arrived="0" entered="5" left="13" laneChangedFrom="0" laneChangedTo="0"/>
        <edge id="25" sampledSeconds="2872.17" traveltime="227.49" overlapTraveltime="228.51" density="2.41" occupancy="1.21" waitingTime="16.00" speed="5.23" departed="7" arrived="0" entered="5" left="14" laneChangedFrom="0" laneChangedTo="0"/>
        <edge id="26" sampledSeconds="1788.81" traveltime="226.86" overlapTraveltime="227.72" density="1.50" occupancy="0.75" waitingTime="0.00" speed="5.25" departed="8" arrived="0" entered="0" left="8" laneChangedFrom="0" laneChangedTo="0"/>
        <edge id="27" sampledSeconds="3701.17" traveltime="277.36" overlapTraveltime="278.10" density="2.07" occupancy="1.03" waitingTime="0.00" speed="6.46" departed="4" arrived="0" entered="11" left="13" laneChangedFrom="0" laneChangedTo="0"/>
        <edge id="28" sampledSeconds="8004.40" traveltime="345.47" overlapTraveltime="346.10" density="3.09" occupancy="1.55" waitingTime="0.00" speed="7.49" departed="6" arrived="0" entered="14" left="28" laneChangedFrom="0" laneChangedTo="0"/>
        <edge id="29" sampledSeconds="5664.31" traveltime="174.60" overlapTraveltime="175.51" density="2.86" occupancy="1.43" waitingTime="40.00" speed="11.32" departed="10" arrived="0" entered="26" left="30" laneChangedFrom="0" laneChangedTo="0"/>
        <edge id="3" sampledSeconds="13631.54" traveltime="221.57" overlapTraveltime="222.04" density="2.53" occupancy="1.26" waitingTime="0.00" speed="24.31" departed="7" arrived="38" entered="50" left="28" laneChangedFrom="0" laneChangedTo="0"/>
        <edge id="30" sampledSeconds="3002.82" traveltime="285.39" overlapTraveltime="286.52" density="1.30" occupancy="0.65" waitingTime="21.00" speed="8.09" departed="9" arrived="0" entered="0" left="12" laneChangedFrom="0" laneChangedTo="0"/>
        <edge id="31" sampledSeconds="3242.95" traveltime="231.14" overlapTraveltime="231.93" density="1.36" occupancy="0.68" waitingTime="5.00" speed="10.33" departed="9" arrived="0" entered="6" left="13" laneChangedFrom="0" laneChangedTo="0"/>
        <edge id="32" sampledSeconds="3147.05" traveltime="278.15" overlapTraveltime="278.84" density="1.76" occupancy="0.88" waitingTime="0.00" speed="6.44" departed="8" arrived="0" entered="5" left="11" laneChangedFrom="0" laneChangedTo="0"/>
        <edge id="33" sampledSeconds="3650.19" traveltime="114.65" overlapTraveltime="115.40" density="2.29" occupancy="1.15" waitingTime="8.00" speed="13.83" departed="3" arrived="0" entered="28" left="31" laneChangedFrom="0" laneChangedTo="0"/>
        <edge id="34" sampledSeconds="1781.98" traveltime="278.47" overlapTraveltime="279.10" density="0.69" occupancy="0.34" waitingTime="0.00" speed="9.30" departed="4" arrived="0" entered="4" left="6" laneChangedFrom="0" laneChangedTo="0"/>
        <edge id="35" sampledSeconds="4457.66" traveltime="93.39" overlapTraveltime="93.76" density="1.86" occupancy="0.93" waitingTime="3.00" speed="25.55" departed="5" arrived="0" entered="40" left="49" laneChangedFrom="0" laneChangedTo="0"/>
        <edge id="36" sampledSeconds="1152.16" traveltime="115.75" overlapTraveltime="116.39" density="0.72" occupancy="0.36" waitingTime="0.00" speed="13.71" departed="9" arrived="0" entered="2" left="8" laneChangedFrom="0" laneChangedTo="0"/>
        <edge id="37" sampledSeconds="13012.38" traveltime="188.82" overlapTraveltime="189.03" density="2.41" occupancy="1.21" waitingTime="0.00" speed="28.55" departed="5" arrived="46" entered="63" left="24" laneChangedFrom="0" laneChangedTo="0"/>
        <edge id="38" sampledSeconds="9000.65" traveltime="189.07" overlapTraveltime="189.59" density="1.67" occupancy="0.83" waitingTime="0.00" speed="28.47" departed="3" arrived="0" entered="45" left="46" laneChangedFrom="0" laneChangedTo="0"/>
        <edge id="39" sampledSeconds="3263.73" traveltime="100.63" overlapTraveltime="101.31" density="2.05" occupancy="1.03" waitingTime="2.00" speed="15.76" departed="5" arrived="0" entered="27" left="33" laneChangedFrom="0" laneChangedTo="0"/>
        <edge id="4" sampledSeconds="1754.74" traveltime="78.73" overlapTraveltime="79.30" density="1.26" occupancy="0.63" waitingTime="3.00" speed="17.62" departed="5" arrived="0" entered="18" left="21" laneChangedFrom="0" laneChangedTo="0"/>
        <edge id="40" sampledSeconds="2761.37" traveltime="279.07" overlapTraveltime="279.76" density="1.07" occupancy="0.53" waitingTime="0.00" speed="9.28" departed="5" arrived="0" entered="6" left="10" laneChangedFrom="0" laneChangedTo="0"/>
        <edge id="41" sampledSeconds="4807.14" traveltime="197.77" overlapTraveltime="198.61" density="2.68" occupancy="1.34" waitingTime="5.00" speed="9.04" departed="10" arrived="0" entered="13" left="23" laneChangedFrom="0" laneChangedTo="0"/>
        <edge id="42" sampledSeconds="1513.82" traveltime="129.61" overlapTraveltime="130.38" density="1.27" occupancy="0.64" waitingTime="0.00" speed="9.17" departed="9" arrived="0" entered="1" left="12" laneChangedFrom="0" laneChangedTo="0"/>
        <edge id="43" sampledSeconds="2707.10" traveltime="346.70" overlapTraveltime="347.56" density="1.05" occupancy="0.52" waitingTime="0.00" speed="7.46" departed="8" arrived="0" entered="0" left="8" laneChangedFrom="0" laneChangedTo="0"/>
        <edge id="44" sampledSeconds="1472.17" traveltime="198.36" overlapTraveltime="199.16" density="0.82" occupancy="0.41" waitingTime="0.00" speed="9.02" departed="6" arrived="0" entered="0" left="7" laneChangedFrom="0" laneChangedTo="0"/>
        <edge id="45" sampledSeconds="6879.11" traveltime="127.78" overlapTraveltime="128.18" density="3.46" occupancy="1.73" waitingTime="0.00" speed="15.57" departed="3" arrived="0" entered="51" left="54" laneChangedFrom="0" laneChangedTo="0"/>