<?xml version="1.0" encoding="UTF-8"?>

<!-- generated on 02/12/18 16:04:19 by SUMO Version 0.30.0
<?xml version="1.0" encoding="UTF-8"?>

<configuration xmlns:xsi="http://www.w3.org/2001/XMLSchema-instance" xsi:noNamespaceSchemaLocation="http://sumo.dlr.de/xsd/sumoConfiguration.xsd">

    <input>
        <net-file value="C:/Users/Shekar/Desktop/laptop/sumo_sim/sioux_falls/config/../network/sf_net.net.xml"/>
        <route-files value="C:/Users/Shekar/Desktop/laptop/sumo_sim/sioux_falls/config/../trips/trip.xml"/>
        <additional-files value="C:/Users/Shekar/Desktop/laptop/sumo_sim/sioux_falls/config/additional_73__0_1000.xml"/>
    </input>

    <output>
        <summary-output value="C:/Users/Shekar/Desktop/laptop/sumo_sim/sioux_falls/config/../output/summary_73__0_1000.xml"/>
    </output>

    <processing>
        <time-to-teleport value="300"/>
    </processing>

    <report>
        <log value="C:/Users/Shekar/Desktop/laptop/sumo_sim/sioux_falls/config/../output/report_73__0_1000.xml"/>
    </report>

</configuration>
-->

<meandata xmlns:xsi="http://www.w3.org/2001/XMLSchema-instance" xsi:noNamespaceSchemaLocation="http://sumo.dlr.de/xsd/meandata_file.xsd">
    <interval begin="0.00" end="1000.00" id="1">
        <edge id="1" sampledSeconds="5435.18" traveltime="222.52" overlapTraveltime="222.85" density="1.01" occupancy="0.50" waitingTime="3.00" speed="24.22" departed="6" arrived="10" entered="24" left="8" laneChangedFrom="0" laneChangedTo="0"/>
        <edge id="10" sampledSeconds="1647.03" traveltime="231.81" overlapTraveltime="232.42" density="0.69" occupancy="0.34" waitingTime="0.00" speed="10.31" departed="8" arrived="0" entered="0" left="5" laneChangedFrom="0" laneChangedTo="0"/>
        <edge id="11" sampledSeconds="2231.43" traveltime="84.86" overlapTraveltime="85.18" density="1.25" occupancy="0.62" waitingTime="0.00" speed="21.08" departed="4" arrived="0" entered="23" left="26" laneChangedFrom="0" laneChangedTo="0"/>
        <edge id="12" sampledSeconds="4446.93" traveltime="126.81" overlapTraveltime="127.55" density="2.23" occupancy="1.12" waitingTime="5.00" speed="15.65" departed="5" arrived="0" entered="31" left="34" laneChangedFrom="0" laneChangedTo="0"/>
        <edge id="13" sampledSeconds="1063.10" traveltime="132.68" overlapTraveltime="133.46" density="0.89" occupancy="0.45" waitingTime="0.00" speed="8.96" departed="8" arrived="0" entered="0" left="8" laneChangedFrom="0" laneChangedTo="0"/>
        <edge id="14" sampledSeconds="4326.32" traveltime="77.97" overlapTraveltime="78.24" density="3.11" occupancy="1.55" waitingTime="0.00" speed="17.85" departed="5" arrived="18" entered="56" left="32" laneChangedFrom="0" laneChangedTo="0"/>
        <edge id="15" sampledSeconds="2906.89" traveltime="126.63" overlapTraveltime="127.04" density="1.46" occupancy="0.73" waitingTime="0.00" speed="15.71" departed="10" arrived="0" entered="15" left="21" laneChangedFrom="0" laneChangedTo="0"/>
        <edge id="16" sampledSeconds="2501.17" traveltime="63.88" overlapTraveltime="64.51" density="2.10" occupancy="1.05" waitingTime="0.00" speed="18.53" departed="5" arrived="0" entered="35" left="37" laneChangedFrom="0" laneChangedTo="0"/>
        <edge id="17" sampledSeconds="3335.67" traveltime="130.36" overlapTraveltime="131.06" density="1.67" occupancy="0.84" waitingTime="1.00" speed="15.24" departed="11" arrived="0" entered="17" left="24" laneChangedFrom="0" laneChangedTo="0"/>
        <edge id="18" sampledSeconds="1139.83" traveltime="48.62" overlapTraveltime="49.59" density="0.96" occupancy="0.48" waitingTime="10.00" speed="24.14" departed="4" arrived="0" entered="19" left="23" laneChangedFrom="0" laneChangedTo="0"/>
        <edge id="19" sampledSeconds="3708.54" traveltime="63.70" overlapTraveltime="64.10" density="3.12" occupancy="1.56" waitingTime="0.00" speed="18.65" departed="10" arrived="0" entered="50" left="55" laneChangedFrom="0" laneChangedTo="0"/>
        <edge id="2" sampledSeconds="741.26" traveltime="61.10" overlapTraveltime="61.90" density="0.53" occupancy="0.27" waitingTime="1.00" speed="22.57" departed="7" arrived="0" entered="5" left="12" laneChangedFrom="0" laneChangedTo="0"/>
        <edge id="20" sampledSeconds="4989.44" traveltime="129.09" overlapTraveltime="129.44" density="2.50" occupancy="1.25" waitingTime="0.00" speed="15.43" departed="9" arrived="15" entered="34" left="20" laneChangedFrom="0" laneChangedTo="0"/>
        <edge id="21" sampledSeconds="907.09" traveltime="256.86" overlapTraveltime="257.59" density="0.46" occupancy="0.23" waitingTime="0.00" speed="7.75" departed="4" arrived="0" entered="0" left="3" laneChangedFrom="0" laneChangedTo="0"/>
        <edge id="22" sampledSeconds="3158.74" traveltime="119.19" overlapTraveltime="119.67" density="2.65" occupancy="1.33" waitingTime="0.00" speed="9.99" departed="5" arrived="0" entered="24" left="24" laneChangedFrom="0" laneChangedTo="0"/>
        <edge id="23" sampledSeconds="1373.84" traveltime="131.95" overlapTraveltime="132.80" density="1.15" occupancy="0.58" waitingTime="1.00" speed="9.00" departed="6" arrived="0" entered="6" left="9" laneChangedFrom="0" laneChangedTo="0"/>
        <edge id="24" sampledSeconds="2585.53" traveltime="257.92" overlapTraveltime="258.95" density="1.30" occupancy="0.65" waitingTime="13.00" speed="7.71" departed="6" arrived="0" entered="4" left="10" laneChangedFrom="0" laneChangedTo="0"/>
        <edge id="25" sampledSeconds="2085.39" traveltime="226.34" overlapTraveltime="227.24" density="1.75" occupancy="0.88" waitingTime="0.00" speed="5.26" departed="8" arrived="0" entered="3" left="6" laneChangedFrom="0" laneChangedTo="0"/>
        <edge id="26" sampledSeconds="511.25" traveltime="226.81" overlapTraveltime="227.66" density="0.43" occupancy="0.21" waitingTime="0.00" speed="5.25" departed="2" arrived="0" entered="1" left="2" laneChangedFrom="0" laneChangedTo="0"/>
        <edge id="27" sampledSeconds="2180.44" traveltime="277.43" overlapTraveltime="278.18" density="1.22" occupancy="0.61" waitingTime="0.00" speed="6.45" departed="4" arrived="0" entered="6" left="6" laneChangedFrom="0" laneChangedTo="0"/>
        <edge id="28" sampledSeconds="4754.00" traveltime="346.70" overlapTraveltime="347.41" density="1.84" occupancy="0.92" waitingTime="0.00" speed="7.46" departed="11" arrived="0" entered="10" left="7" laneChangedFrom="0" laneChangedTo="0"/>
        <edge id="29" sampledSeconds="3223.29" traveltime="173.93" overlapTraveltime="174.78" density="1.63" occupancy="0.81" waitingTime="6.00" speed="11.37" departed="4" arrived="0" entered="15" left="17" laneChangedFrom="0" laneChangedTo="0"/>
        <edge id="3" sampledSeconds="6133.32" traveltime="221.79" overlapTraveltime="222.09" density="1.14" occupancy="0.57" waitingTime="0.00" speed="24.31" departed="3" arrived="10" entered="36" left="7" laneChangedFrom="0" laneChangedTo="0"/>
        <edge id="30" sampledSeconds="854.07" traveltime="282.59" overlapTraveltime="283.19" density="0.37" occupancy="0.18" waitingTime="0.00" speed="8.18" departed="6" arrived="0" entered="0" left="1" laneChangedFrom="0" laneChangedTo="0"/>
        <edge id="31" sampledSeconds="1031.45" traveltime="231.87" overlapTraveltime="232.74" density="0.43" occupancy="0.22" waitingTime="3.00" speed="10.29" departed="4" arrived="0" entered="1" left="4" laneChangedFrom="0" laneChangedTo="0"/>
        <edge id="32" sampledSeconds="2371.44" traveltime="277.77" overlapTraveltime="278.49" density="1.32" occupancy="0.66" waitingTime="0.00" speed="6.45" departed="6" arrived="0" entered="3" left="8" laneChangedFrom="0" laneChangedTo="0"/>
        <edge id="33" sampledSeconds="2600.26" traveltime="114.73" overlapTraveltime="115.48" density="1.63" occupancy="0.82" waitingTime="5.00" speed="13.82" departed="4" arrived="0" entered="22" left="20" laneChangedFrom="0" laneChangedTo="0"/>
        <edge id="34" sampledSeconds="1382.81" traveltime="279.44" overlapTraveltime="280.12" density="0.53" occupancy="0.27" waitingTime="0.00" speed="9.27" departed="6" arrived="0" entered="0" left="4" laneChangedFrom="0" laneChangedTo="0"/>
        <edge id="35" sampledSeconds="2486.05" traveltime="95.00" overlapTraveltime="95.27" density="1.04" occupancy="0.52" waitingTime="0.00" speed="25.14" departed="7" arrived="0" entered="23" left="23" laneChangedFrom="0" laneChangedTo="0"/>
        <edge id="36" sampledSeconds="474.12" traveltime="116.00" overlapTraveltime="118.91" density="0.30" occupancy="0.15" waitingTime="8.00" speed="13.42" departed="4" arrived="0" entered="0" left="4" laneChangedFrom="0" laneChangedTo="0"/>
        <edge id="37" sampledSeconds="8626.09" traveltime="188.94" overlapTraveltime="189.18" density="1.60" occupancy="0.80" waitingTime="0.00" speed="28.53" departed="4" arrived="18" entered="49" left="21" laneChangedFrom="0" laneChangedTo="0"/>
        <edge id="38" sampledSeconds="4059.39" traveltime="190.28" overlapTraveltime="190.91" density="0.75" occupancy="0.38" waitingTime="2.00" speed="28.27" departed="5" arrived="0" entered="18" left="20" laneChangedFrom="0" laneChangedTo="0"/>
        <edge id="39" sampledSeconds="2823.90" traveltime="101.38" overlapTraveltime="102.37" density="1.77" occupancy="0.89" waitingTime="7.00" speed="15.60" departed="8" arrived="0" entered="21" left="27" laneChangedFrom="0" laneChangedTo="0"/>
        <edge id="4" sampledSeconds="1372.55" traveltime="80.60" overlapTraveltime="80.96" density="0.99" occupancy="0.49" waitingTime="0.00" speed="17.25" departed="13" arrived="0" entered="4" left="17" laneChangedFrom="0" laneChangedTo="0"/>
        <edge id="40" sampledSeconds="3454.64" traveltime="278.38" overlapTraveltime="279.08" density="1.33" occupancy="0.67" waitingTime="0.00" speed="9.30" departed="6" arrived="0" entered="9" left="11" laneChangedFrom="0" laneChangedTo="0"/>
        <edge id="41" sampledSeconds="3321.86" traveltime="197.82" overlapTraveltime="198.58" density="1.86" occupancy="0.93" waitingTime="1.00" speed="9.04" departed="9" arrived="0" entered="10" left="15" laneChangedFrom="0" laneChangedTo="0"/>
        <edge id="42" sampledSeconds="696.13" traveltime="130.22" overlapTraveltime="130.91" density="0.58" occupancy="0.29" waitingTime="0.00" speed="9.13" departed="7" arrived="0" entered="0" left="5" laneChangedFrom="0" laneChangedTo="0"/>
        <edge id="43" sampledSeconds="3109.61" traveltime="347.56" overlapTraveltime="348.45" density="1.20" occupancy="0.60" waitingTime="2.00" speed="7.44" departed="11" arrived="0" entered="0" left="7" laneChangedFrom="0" laneChangedTo="0"/>
        <edge id="44" sampledSeconds="1038.74" traveltime="197.88" overlapTraveltime="198.54" density="0.58" occupancy="0.29" waitingTime="0.00" speed="9.04" departed="5" arrived="0" entered="2" left="5" laneChangedFrom="0" laneChangedTo="0"/>
        <edge id="45" sampledSeconds="4065.83" traveltime="128.15" overlapTraveltime="128.54" density="2.04" occupancy="1.02" waitingTime="0.00" speed="15.52" departed="4" arrived="0" entered="32" left="28" laneChangedFrom="0" laneChangedTo="0"/>
        <edge id="46" sampledSeconds="2438.91" traveltime="71.49" overlapTraveltime="72.00" density="2.05" occupancy="1.02" waitingTime="0.00" speed="16.60" departed="5" arrived="0" entered="33" left="29" laneChangedFrom="0" laneChangedTo="0"/>
        <edge id="47" sampledSeconds="4865.86" traveltime="119.16" overlapTraveltime="119.65" density="4.09" occupancy="2.04" waitingTime="0.00" speed="9.99" departed="5" arrived="0" entered="38" left="37" laneChangedFrom="0" laneChangedTo="0"/>
        <edge id="48" sampledSeconds="1843.38" traveltime="173.58" overlapTraveltime="175.09" density="0.93" occupancy="0.47" waitingTime="5.00" speed="11.35" departed="9" arrived="0" entered="3" left="9" laneChangedFrom="0" laneChangedTo="0"/>
        <edge id="49" sampledSeconds="1750.65" traveltime="40.84" overlapTraveltime="41.20" density="1.47" occupancy="0.74" waitingTime="0.00" speed="28.96" departed="10" arrived="0" entered="33" left="42" laneChangedFrom="0" laneChangedTo="0"/>
        <edge id="5" sampledSeconds="1984.85" traveltime="58.50" overlapTraveltime="58.75" density="1.43" occupancy="0.71" waitingTime="0.00" speed="23.78" departed="6" arrived="11" entered="29" left="22" laneChangedFrom="0" laneChangedTo="0"/>
        <edge id="50" sampledSeconds="4061.37" traveltime="159.24" overlapTraveltime="159.97" density="2.04" occupancy="1.02" waitingTime="4.00" speed="12.47" departed="9" arrived="0" entered="17" left="25" laneChangedFrom="0" laneChangedTo="0"/>
        <edge id="51" sampledSeconds="617.60" traveltime="283.96" overlapTraveltime="284.67" density="0.27" occupancy="0.13" waitingTime="0.00" speed="8.14" departed="3" arrived="0" entered="0" left="2" laneChangedFrom="0" laneChangedTo="0"/>
        <edge id="52" sampledSeconds="1788.82" traveltime="40.65" overlapTraveltime="41.25" density="1.51" occupancy="0.75" waitingTime="9.00" speed="28.92" departed="10" arrived="0" entered="36" left="41" laneChangedFrom="0" laneChangedTo="0"/>
        <edge id="53" sampledSeconds="5129.13" traveltime="110.98" overlapTraveltime="111.54" density="3.68" occupancy="1.84" waitingTime="0.00" speed="12.52" departed="11" arrived="0" entered="39" left="40" laneChangedFrom="0" laneChangedTo="0"/>
        <edge id="54" sampledSeconds="1658.70" traveltime="48.65" overlapTraveltime="48.92" density="1.39" occupancy="0.70" waitingTime="0.00" speed="24.47" departed="4" arrived="17" entered="30" left="16" laneChangedFrom="0" laneChangedTo="0"/>
        <edge id="55" sampledSeconds="1575.67" traveltime="161.00" overlapTraveltime="161.76" density="0.79" occupancy="0.40" waitingTime="2.00" speed="12.33" departed="10" arrived="0" entered="1" left="9" laneChangedFrom="0" laneChangedTo="0"/>
        <edge id="56" sampledSeconds="7034.22" traveltime="215.65" overlapTraveltime="215.97" density="1.23" occupancy="0.61" waitingTime="0.00" speed="26.57" departed="9" arrived="9" entered="33" left="15" laneChangedFrom="0" laneChangedTo="0"/>
        <edge id="57" sampledSeconds="2928.22" traveltime="129.33" overlapTraveltime="130.07" density="1.47" occupancy="0.74" waitingTime="3.00" speed="15.34" departed="4" arrived="0" entered="21" left="21" laneChangedFrom="0" laneChangedTo="0"/>
        <edge id="58" sampledSeconds="3643.06" traveltime="110.61" overlapTraveltime="111.01" density="2.62" occupancy="1.31" waitingTime="0.00" speed="12.58" departed="7" arrived="0" entered="27" left="32" laneChangedFrom="0" laneChangedTo="0"/>
        <edge id="59" sampledSeconds="5137.64" traveltime="240.73" overlapTraveltime="241.24" density="1.85" occupancy="0.93" waitingTime="0.00" speed="11.53" departed="5" arrived="11" entered="24" left="3" laneChangedFrom="0" laneChangedTo="0"/>
        <edge id="6" sampledSeconds="1822.62" traveltime="94.87" overlapTraveltime="95.19" density="1.15" occupancy="0.57" waitingTime="0.00" speed="16.76" departed="7" arrived="0" entered="14" left="19" laneChangedFrom="0" laneChangedTo="0"/>
        <edge id="60" sampledSeconds="3816.12" traveltime="216.13" overlapTraveltime="216.48" density="0.67" occupancy="0.33" waitingTime="0.00" speed="26.50" departed="6" arrived="0" entered="14" left="16" laneChangedFrom="0" laneChangedTo="0"/>
        <edge id="61" sampledSeconds="1184.60" traveltime="242.51" overlapTraveltime="243.09" density="0.43" occupancy="0.21" waitingTime="0.00" speed="11.44" departed="4" arrived="0" entered="1" left="4" laneChangedFrom="0" laneChangedTo="0"/>
        <edge id="62" sampledSeconds="4051.83" traveltime="222.65" overlapTraveltime="223.52" density="2.04" occupancy="1.02" waitingTime="6.00" speed="8.90" departed="5" arrived="0" entered="15" left="17" laneChangedFrom="0" laneChangedTo="0"/>
        <edge id="63" sampledSeconds="1839.53" traveltime="218.01" overlapTraveltime="218.69" density="0.72" occupancy="0.36" waitingTime="0.00" speed="11.65" departed="5" arrived="0" entered="4" left="8" laneChangedFrom="0" laneChangedTo="0"/>
        <edge id="64" sampledSeconds="4977.14" traveltime="221.44" overlapTraveltime="222.00" density="2.51" occupancy="1.25" waitingTime="0.00" speed="8.96" departed="4" arrived="8" entered="23" left="8" laneChangedFrom="0" laneChangedTo="0"/>
        <edge id="65" sampledSeconds="3187.72" traveltime="126.74" overlapTraveltime="127.20" density="2.01" occupancy="1.00" waitingTime="0.00" speed="12.52" departed="11" arrived="0" entered="15" left="23" laneChangedFrom="0" laneChangedTo="0"/>
        <edge id="66" sampledSeconds="4661.08" traveltime="127.41" overlapTraveltime="127.78" density="2.60" occupancy="1.30" waitingTime="0.00" speed="14.05" departed="7" arrived="0" entered="32" left="32" laneChangedFrom="0" laneChangedTo="0"/>
        <edge id="67" sampledSeconds="1936.44" traveltime="71.50" overlapTraveltime="72.19" density="1.63" occupancy="0.81" waitingTime="2.00" speed="16.56" departed="8" arrived="0" entered="20" left="25" laneChangedFrom="0" laneChangedTo="0"/>
        <edge id="68" sampledSeconds="6694.12" traveltime="254.42" overlapTraveltime="255.01" density="2.63" occupancy="1.32" waitingTime="1.00" speed="9.99" departed="6" arrived="10" entered="26" left="8" laneChangedFrom="0" laneChangedTo="0"/>
        <edge id="69" sampledSeconds="1997.00" traveltime="60.18" overlapTraveltime="60.55" density="1.26" occupancy="0.63" waitingTime="0.00" speed="26.29" departed="8" arrived="0" entered="27" left="32" laneChangedFrom="0" laneChangedTo="0"/>
        <edge id="7" sampledSeconds="3197.39" traveltime="95.10" overlapTraveltime="95.32" density="1.34" occupancy="0.67" waitingTime="0.00" speed="25.13" departed="5" arrived="0" entered="29" left="32" laneChangedFrom="0" laneChangedTo="0"/>
        <edge id="70" sampledSeconds="949.13" traveltime="174.44" overlapTraveltime="175.10" density="0.53" occupancy="0.27" waitingTime="0.00" speed="10.25" departed="6" arrived="0" entered="0" left="5" laneChangedFrom="0" laneChangedTo="0"/>
        <edge id="71" sampledSeconds="1354.44" traveltime="129.36" overlapTraveltime="130.01" density="1.14" occupancy="0.57" waitingTime="0.00" speed="9.20" departed="7" arrived="0" entered="5" left="10" laneChangedFrom="0" laneChangedTo="0"/>
        <edge id="72" sampledSeconds="2804.12" traveltime="173.18" overlapTraveltime="173.98" density="1.57" occupancy="0.78" waitingTime="6.00" speed="10.32" departed="6" arrived="0" entered="13" left="14" laneChangedFrom="0" laneChangedTo="0"/>
        <edge id="73" sampledSeconds="865.05" traveltime="156.13" overlapTraveltime="157.01" density="0.54" occupancy="0.27" waitingTime="3.00" speed="10.16" departed="7" arrived="0" entered="0" left="4" laneChangedFrom="0" laneChangedTo="0"/>
        <edge id="74" sampledSeconds="4091.58" traveltime="100.44" overlapTraveltime="100.77" density="2.57" occupancy="1.29" waitingTime="0.00" speed="15.85" departed="5" arrived="17" entered="45" left="18" laneChangedFrom="0" laneChangedTo="0"/>
        <edge id="75" sampledSeconds="2994.45" traveltime="129.15" overlapTraveltime="129.90" density="1.67" occupancy="0.84" waitingTime="4.00" speed="13.82" departed="8" arrived="0" entered="17" left="21" laneChangedFrom="0" laneChangedTo="0"/>
        <edge id="76" sampledSeconds="1272.00" traveltime="154.87" overlapTraveltime="155.52" density="0.80" occupancy="0.40" waitingTime="0.00" speed="10.26" departed="8" arrived="0" entered="1" left="8" laneChangedFrom="0" laneChangedTo="0"/>
        <edge id="8" sampledSeconds="3689.16" traveltime="95.69" overlapTraveltime="96.41" density="2.32" occupancy="1.16" waitingTime="1.00" speed="16.55" departed="10" arrived="0" entered="29" left="37" laneChangedFrom="0" laneChangedTo="0"/>
        <edge id="9" sampledSeconds="2161.44" traveltime="85.00" overlapTraveltime="85.49" density="1.21" occupancy="0.60" waitingTime="0.00" speed="21.00" departed="6" arrived="0" entered="20" left="24" laneChangedFrom="0" laneChangedTo="0"/>
    </interval>
    <interval begin="1000.00" end="2000.00" id="2">
        <edge id="1" sampledSeconds="13432.93" traveltime="221.99" overlapTraveltime="222.26" density="2.49" occupancy="1.25" waitingTime="0.00" speed="24.29" departed="8" arrived="40" entered="56" left="17" laneChangedFrom="0" laneChangedTo="0"/>
        <edge id="10" sampledSeconds="2566.07" traveltime="232.01" overlapTraveltime="232.86" density="1.07" occupancy="0.54" waitingTime="2.00" speed="10.29" departed="11" arrived="0" entered="0" left="12" laneChangedFrom="0" laneChangedTo="0"/>
        <edge id="11" sampledSeconds="3960.38" traveltime="85.54" overlapTraveltime="85.92" density="2.21" occupancy="1.11" waitingTime="0.00" speed="20.90" departed="12" arrived="0" entered="36" left="42" laneChangedFrom="0" laneChangedTo="0"/>
        <edge id="12" sampledSeconds="6223.68" traveltime="126.50" overlapTraveltime="127.27" density="3.13" occupancy="1.56" waitingTime="7.00" speed="15.68" departed="4" arrived="0" entered="47" left="47" laneChangedFrom="0" laneChangedTo="0"/>
        <edge id="13" sampledSeconds="691.56" traveltime="132.74" overlapTraveltime="133.52" density="0.58" occupancy="0.29" waitingTime="0.00" speed="8.95" departed="6" arrived="0" entered="0" left="4" laneChangedFrom="0" laneChangedTo="0"/>
        <edge id="14" sampledSeconds="6854.62" traveltime="78.09" overlapTraveltime="78.39" density="4.92" occupancy="2.46" waitingTime="0.00" speed="17.82" departed="8" arrived="32" entered="80" left="53" laneChangedFrom="0" laneChangedTo="0"/>
        <edge id="15" sampledSeconds="3937.40" traveltime="125.88" overlapTraveltime="126.27" density="1.98" occupancy="0.99" waitingTime="0.00" speed="15.80" departed="7" arrived="0" entered="23" left="32" laneChangedFrom="0" laneChangedTo="0"/>
        <edge id="16" sampledSeconds="3189.53" traveltime="63.77" overlapTraveltime="64.57" density="2.68" occupancy="1.34" waitingTime="0.00" speed="18.52" departed="3" arrived="0" entered="46" left="50" laneChangedFrom="0" laneChangedTo="0"/>
        <edge id="17" sampledSeconds="3789.91" traveltime="130.49" overlapTraveltime="131.36" density="1.90" occupancy="0.95" waitingTime="12.00" speed="15.20" departed="8" arrived="0" entered="20" left="30" laneChangedFrom="0" laneChangedTo="0"/>
        <edge id="18" sampledSeconds="1863.57" traveltime="49.41" overlapTraveltime="50.02" density="1.56" occupancy="0.78" waitingTime="1.00" speed="23.93" departed="8" arrived="0" entered="31" left="36" laneChangedFrom="0" laneChangedTo="0"/>
        <edge id="19" sampledSeconds="5149.32" traveltime="63.23" overlapTraveltime="63.66" density="4.33" occupancy="2.16" waitingTime="0.00" speed="18.78" departed="3" arrived="0" entered="78" left="81" laneChangedFrom="0" laneChangedTo="0"/>
        <edge id="2" sampledSeconds="660.85" traveltime="59.65" overlapTraveltime="60.16" density="0.47" occupancy="0.24" waitingTime="0.00" speed="23.22" departed="4" arrived="0" entered="7" left="11" laneChangedFrom="0" laneChangedTo="0"/>
        <edge id="20" sampledSeconds="9254.14" traveltime="128.68" overlapTraveltime="129.02" density="4.65" occupancy="2.32" waitingTime="0.00" speed="15.48" departed="12" arrived="40" entered="58" left="34" laneChangedFrom="0" laneChangedTo="0"/>
        <edge id="21" sampledSeconds="1910.84" traveltime="257.02" overlapTraveltime="257.74" density="0.96" occupancy="0.48" waitingTime="0.00" speed="7.74" departed="7" arrived="0" entered="0" left="7" laneChangedFrom="0" laneChangedTo="0"/>
        <edge id="22" sampledSeconds="5010.40" traveltime="119.68" overlapTraveltime="120.22" density="4.21" occupancy="2.10" waitingTime="0.00" speed="9.94" departed="14" arrived="0" entered="28" left="43" laneChangedFrom="0" laneChangedTo="0"/>
        <edge id="23" sampledSeconds="1644.74" traveltime="131.53" overlapTraveltime="132.27" density="1.38" occupancy="0.69" waitingTime="0.00" speed="9.04" departed="3" arrived="0" entered="9" left="13" laneChangedFrom="0" laneChangedTo="0"/>
        <edge id="24" sampledSeconds="3893.89" traveltime="260.38" overlapTraveltime="261.53" density="1.96" occupancy="0.98" waitingTime="33.00" speed="7.63" departed="11" arrived="0" entered="5" left="13" laneChangedFrom="0" laneChangedTo="0"/>
        <edge id="25" sampledSeconds="2871.94" traveltime="227.28" overlapTraveltime="228.20" density="2.41" occupancy="1.21" waitingTime="18.00" speed="5.24" departed="7" arrived="0" entered="5" left="14" laneChangedFrom="0" laneChangedTo="0"/>
        <edge id="26" sampledSeconds="1785.65" traveltime="226.64" overlapTraveltime="227.55" density="1.50" occupancy="0.75" waitingTime="0.00" speed="5.25" departed="8" arrived="0" entered="0" left="8" laneChangedFrom="0" laneChangedTo="0"/>
        <edge id="27" sampledSeconds="3708.00" traveltime="277.36" overlapTraveltime="278.10" density="2.07" occupancy="1.04" waitingTime="0.00" speed="6.46" departed="4" arrived="0" entered="11" left="13" laneChangedFrom="0" laneChangedTo="0"/>
        <edge id="28" sampledSeconds="8035.62" traveltime="346.01" overlapTraveltime="346.65" density="3.10" occupancy="1.55" waitingTime="0.00" speed="7.48" departed="6" arrived="0" entered="14" left="28" laneChangedFrom="0" laneChangedTo="0"/>
        <edge id="29" sampledSeconds="5675.12" traveltime="174.94" overlapTraveltime="175.85" density="2.86" occupancy="1.43" waitingTime="46.00" speed="11.30" departed="10" arrived="0" entered="26" left="30" laneChangedFrom="0" laneChangedTo="0"/>
        <edge id="3" sampledSeconds="13674.45" traveltime="221.64" overlapTraveltime="222.36" density="2.54" occupancy="1.27" waitingTime="11.00" speed="24.28" departed="6" arrived="38" entered="52" left="28" laneChangedFrom="0" laneChangedTo="0"/>
        <edge id="30" sampledSeconds="2982.10" traveltime="283.83" overlapTraveltime="284.84" density="1.29" occupancy="0.64" waitingTime="14.00" speed="8.13" departed="9" arrived="0" entered="0" left="12" laneChangedFrom="0" laneChangedTo="0"/>
        <edge id="31" sampledSeconds="3233.29" traveltime="230.68" overlapTraveltime="231.38" density="1.35" occupancy="0.68" waitingTime="0.00" speed="10.35" departed="9" arrived="0" entered="6" left="13" laneChangedFrom="0" laneChangedTo="0"/>
        <edge id="32" sampledSeconds="3139.19" traveltime="277.47" overlapTraveltime="278.20" density="1.75" occupancy="0.88" waitingTime="0.00" speed="6.45" departed="8" arrived="0" entered="5" left="11" laneChangedFrom="0" laneChangedTo="0"/>
        <edge id="33" sampledSeconds="4035.56" traveltime="114.62" overlapTraveltime="115.38" density="2.54" occupancy="1.27" waitingTime="6.00" speed="13.83" departed="3" arrived="0" entered="31" left="35" laneChangedFrom="0" laneChangedTo="0"/>
        <edge id="34" sampledSeconds="1795.10" traveltime="278.89" overlapTraveltime="279.52" density="0.69" occupancy="0.35" waitingTime="0.00" speed="9.29" departed="4" arrived="0" entered="4" left="6" laneChangedFrom="0" laneChangedTo="0"/>
        <edge id="35" sampledSeconds="4404.66" traveltime="93.47" overlapTraveltime="93.70" density="1.84" occupancy="0.92" waitingTime="0.00" speed="25.56" departed="5" arrived="0" entered="40" left="48" laneChangedFrom="0" laneChangedTo="0"/>
        <edge id="36" sampledSeconds="1226.70" traveltime="115.58" overlapTraveltime="116.14" density="0.77" occupancy="0.39" waitingTime="0.00" speed="13.74" departed="9" arrived="0" entered="3" left="8" laneChangedFrom="0" laneChangedTo="0"/>
        <edge id="37" sampledSeconds="13127.38" traveltime="188.82" overlapTraveltime="189.04" density="2.43" occupancy="1.22" waitingTime="0.00" speed="28.55" departed="5" arrived="46" entered="63" left="25" laneChangedFrom="0" laneChangedTo="0"/>
        <edge id="38" sampledSeconds="8454.77" traveltime="189.13" overlapTraveltime="189.70" density="1.57" occupancy="0.78" waitingTime="4.00" speed="28.45" departed="3" arrived="0" entered="43" left="43" laneChangedFrom="0" laneChangedTo="0"/>
        <edge id="39" sampledSeconds="3360.44" traveltime="100.51" overlapTraveltime="101.33" density="2.11" occupancy="1.06" waitingTime="2.00" speed="15.76" departed="5" arrived="0" entered="28" left="33" laneChangedFrom="0" laneChangedTo="0"/>
        <edge id="4" sampledSeconds="1757.38" traveltime="78.79" overlapTraveltime="79.45" density="1.26" occupancy="0.63" waitingTime="3.00" speed="17.58" departed="5" arrived="0" entered="18" left="21" laneChangedFrom="0" laneChangedTo="0"/>
        <edge id="40" sampledSeconds="3449.08" traveltime="278.44" overlapTraveltime="279.12" density="1.33" occupancy="0.67" waitingTime="0.00" speed="9.30" departed="5" arrived="0" entered="8" left="13" laneChangedFrom="0" laneChangedTo="0"/>
        <edge id="41" sampledSeconds="4813.02" traveltime="198.05" overlapTraveltime="198.84" density="2.69" occupancy="1.34" waitingTime="10.00" speed="9.03" departed="10" arrived="0" entered="13" left="23" laneChangedFrom="0" laneChangedTo="0"/>
        <edge id="42" sampledSeconds="1509.46" traveltime="129.25" overlapTraveltime="129.97" density="1.27" occupancy="0.63" waitingTime="0.00" speed="9.20" departed="9" arrived="0" entered="1" left="12" laneChangedFrom="0" laneChangedTo="0"/>
        <edge id="43" sampledSeconds="2701.50" traveltime="346.44" overlapTraveltime="347.12" density="1.04" occupancy="0.52" waitingTime="0.00" speed="7.47" departed="8" arrived="0" entered="0" left="8" laneChangedFrom="0" laneChangedTo="0"/>
        <edge id="44" sampledSeconds="1463.68" traveltime="197.77" overlapTraveltime="198.41" density="0.82" occupancy="0.41" waitingTime="0.00" speed="9.05" departed="6" arrived="0" entered="0" left="7" laneChangedFrom="0" laneChangedTo="0"/>
        <edge id="45" sampledSeconds="7013.42" traveltime="127.81" overlapTraveltime="128.20" density="3.52" occupancy="1.76" waitingTime="0.00" speed="15.57" departed="3" arrived="0" entered="52" left="55" laneChangedFrom="0" laneChangedTo="0"/>