<?xml version="1.0" encoding="UTF-8"?>

<!-- generated on 02/12/18 15:59:58 by SUMO Version 0.30.0
<?xml version="1.0" encoding="UTF-8"?>

<configuration xmlns:xsi="http://www.w3.org/2001/XMLSchema-instance" xsi:noNamespaceSchemaLocation="http://sumo.dlr.de/xsd/sumoConfiguration.xsd">

    <input>
        <net-file value="C:/Users/Shekar/Desktop/laptop/sumo_sim/sioux_falls/config/../network/sf_net.net.xml"/>
        <route-files value="C:/Users/Shekar/Desktop/laptop/sumo_sim/sioux_falls/config/../trips/trip.xml"/>
        <additional-files value="C:/Users/Shekar/Desktop/laptop/sumo_sim/sioux_falls/config/additional_65__0_1000.xml"/>
    </input>

    <output>
        <summary-output value="C:/Users/Shekar/Desktop/laptop/sumo_sim/sioux_falls/config/../output/summary_65__0_1000.xml"/>
    </output>

    <processing>
        <time-to-teleport value="300"/>
    </processing>

    <report>
        <log value="C:/Users/Shekar/Desktop/laptop/sumo_sim/sioux_falls/config/../output/report_65__0_1000.xml"/>
    </report>

</configuration>
-->

<meandata xmlns:xsi="http://www.w3.org/2001/XMLSchema-instance" xsi:noNamespaceSchemaLocation="http://sumo.dlr.de/xsd/meandata_file.xsd">
    <interval begin="0.00" end="1000.00" id="1">
        <edge id="1" sampledSeconds="5437.06" traveltime="222.50" overlapTraveltime="222.86" density="1.01" occupancy="0.50" waitingTime="1.00" speed="24.22" departed="6" arrived="10" entered="24" left="8" laneChangedFrom="0" laneChangedTo="0"/>
        <edge id="10" sampledSeconds="1646.91" traveltime="231.78" overlapTraveltime="232.42" density="0.69" occupancy="0.34" waitingTime="0.00" speed="10.31" departed="8" arrived="0" entered="0" left="5" laneChangedFrom="0" laneChangedTo="0"/>
        <edge id="11" sampledSeconds="2231.01" traveltime="84.84" overlapTraveltime="85.14" density="1.25" occupancy="0.62" waitingTime="0.00" speed="21.09" departed="4" arrived="0" entered="23" left="26" laneChangedFrom="0" laneChangedTo="0"/>
        <edge id="12" sampledSeconds="4444.17" traveltime="126.80" overlapTraveltime="127.50" density="2.23" occupancy="1.12" waitingTime="7.00" speed="15.65" departed="5" arrived="0" entered="31" left="34" laneChangedFrom="0" laneChangedTo="0"/>
        <edge id="13" sampledSeconds="1061.02" traveltime="132.53" overlapTraveltime="133.20" density="0.89" occupancy="0.45" waitingTime="0.00" speed="8.98" departed="8" arrived="0" entered="0" left="8" laneChangedFrom="0" laneChangedTo="0"/>
        <edge id="14" sampledSeconds="4293.49" traveltime="78.02" overlapTraveltime="78.30" density="3.08" occupancy="1.54" waitingTime="0.00" speed="17.84" departed="5" arrived="18" entered="56" left="32" laneChangedFrom="0" laneChangedTo="0"/>
        <edge id="15" sampledSeconds="2895.54" traveltime="126.58" overlapTraveltime="126.99" density="1.45" occupancy="0.73" waitingTime="0.00" speed="15.71" departed="10" arrived="0" entered="15" left="21" laneChangedFrom="0" laneChangedTo="0"/>
        <edge id="16" sampledSeconds="2493.12" traveltime="63.82" overlapTraveltime="64.47" density="2.09" occupancy="1.05" waitingTime="0.00" speed="18.54" departed="5" arrived="0" entered="35" left="37" laneChangedFrom="0" laneChangedTo="0"/>
        <edge id="17" sampledSeconds="3769.64" traveltime="130.35" overlapTraveltime="131.06" density="1.89" occupancy="0.95" waitingTime="2.00" speed="15.24" departed="11" arrived="0" entered="21" left="26" laneChangedFrom="0" laneChangedTo="0"/>
        <edge id="18" sampledSeconds="1142.11" traveltime="48.75" overlapTraveltime="49.69" density="0.96" occupancy="0.48" waitingTime="10.00" speed="24.09" departed="4" arrived="0" entered="19" left="23" laneChangedFrom="0" laneChangedTo="0"/>
        <edge id="19" sampledSeconds="3721.03" traveltime="63.68" overlapTraveltime="64.08" density="3.13" occupancy="1.56" waitingTime="0.00" speed="18.66" departed="10" arrived="0" entered="50" left="55" laneChangedFrom="0" laneChangedTo="0"/>
        <edge id="2" sampledSeconds="744.47" traveltime="61.18" overlapTraveltime="62.17" density="0.53" occupancy="0.27" waitingTime="3.00" speed="22.47" departed="7" arrived="0" entered="5" left="12" laneChangedFrom="0" laneChangedTo="0"/>
        <edge id="20" sampledSeconds="5011.91" traveltime="129.71" overlapTraveltime="130.11" density="2.52" occupancy="1.26" waitingTime="3.00" speed="15.35" departed="9" arrived="15" entered="33" left="20" laneChangedFrom="0" laneChangedTo="0"/>
        <edge id="21" sampledSeconds="907.33" traveltime="257.12" overlapTraveltime="257.81" density="0.46" occupancy="0.23" waitingTime="0.00" speed="7.74" departed="4" arrived="0" entered="0" left="3" laneChangedFrom="0" laneChangedTo="0"/>
        <edge id="22" sampledSeconds="3161.84" traveltime="119.45" overlapTraveltime="119.94" density="2.66" occupancy="1.33" waitingTime="0.00" speed="9.97" departed="5" arrived="0" entered="24" left="24" laneChangedFrom="0" laneChangedTo="0"/>
        <edge id="23" sampledSeconds="1370.14" traveltime="131.88" overlapTraveltime="132.64" density="1.15" occupancy="0.58" waitingTime="0.00" speed="9.01" departed="6" arrived="0" entered="6" left="9" laneChangedFrom="0" laneChangedTo="0"/>
        <edge id="24" sampledSeconds="2589.72" traveltime="258.20" overlapTraveltime="259.37" density="1.30" occupancy="0.65" waitingTime="12.00" speed="7.69" departed="6" arrived="0" entered="4" left="10" laneChangedFrom="0" laneChangedTo="0"/>
        <edge id="25" sampledSeconds="2091.04" traveltime="227.08" overlapTraveltime="227.98" density="1.76" occupancy="0.88" waitingTime="0.00" speed="5.24" departed="8" arrived="0" entered="3" left="6" laneChangedFrom="0" laneChangedTo="0"/>
        <edge id="26" sampledSeconds="453.29" traveltime="226.73" overlapTraveltime="227.62" density="0.38" occupancy="0.19" waitingTime="0.00" speed="5.25" departed="2" arrived="0" entered="0" left="2" laneChangedFrom="0" laneChangedTo="0"/>
        <edge id="27" sampledSeconds="2235.33" traveltime="277.33" overlapTraveltime="278.00" density="1.25" occupancy="0.62" waitingTime="0.00" speed="6.46" departed="4" arrived="0" entered="7" left="6" laneChangedFrom="0" laneChangedTo="0"/>
        <edge id="28" sampledSeconds="4749.20" traveltime="345.97" overlapTraveltime="346.64" density="1.84" occupancy="0.92" waitingTime="0.00" speed="7.48" departed="11" arrived="0" entered="10" left="7" laneChangedFrom="0" laneChangedTo="0"/>
        <edge id="29" sampledSeconds="3054.17" traveltime="174.30" overlapTraveltime="175.25" density="1.54" occupancy="0.77" waitingTime="11.00" speed="11.34" departed="4" arrived="0" entered="14" left="16" laneChangedFrom="0" laneChangedTo="0"/>
        <edge id="3" sampledSeconds="6137.63" traveltime="221.71" overlapTraveltime="221.99" density="1.14" occupancy="0.57" waitingTime="0.00" speed="24.32" departed="3" arrived="10" entered="36" left="7" laneChangedFrom="0" laneChangedTo="0"/>
        <edge id="30" sampledSeconds="1137.09" traveltime="283.28" overlapTraveltime="283.88" density="0.49" occupancy="0.25" waitingTime="0.00" speed="8.16" departed="6" arrived="0" entered="1" left="2" laneChangedFrom="0" laneChangedTo="0"/>
        <edge id="31" sampledSeconds="1023.99" traveltime="230.73" overlapTraveltime="231.29" density="0.43" occupancy="0.21" waitingTime="0.00" speed="10.36" departed="4" arrived="0" entered="1" left="4" laneChangedFrom="0" laneChangedTo="0"/>
        <edge id="32" sampledSeconds="2367.04" traveltime="277.53" overlapTraveltime="278.22" density="1.32" occupancy="0.66" waitingTime="0.00" speed="6.45" departed="6" arrived="0" entered="3" left="8" laneChangedFrom="0" laneChangedTo="0"/>
        <edge id="33" sampledSeconds="2322.54" traveltime="116.25" overlapTraveltime="117.11" density="1.46" occupancy="0.73" waitingTime="7.00" speed="13.62" departed="4" arrived="0" entered="19" left="18" laneChangedFrom="0" laneChangedTo="0"/>
        <edge id="34" sampledSeconds="1382.94" traveltime="279.42" overlapTraveltime="280.05" density="0.53" occupancy="0.27" waitingTime="0.00" speed="9.27" departed="6" arrived="0" entered="0" left="4" laneChangedFrom="0" laneChangedTo="0"/>
        <edge id="35" sampledSeconds="2487.06" traveltime="95.21" overlapTraveltime="95.47" density="1.04" occupancy="0.52" waitingTime="0.00" speed="25.09" departed="7" arrived="0" entered="24" left="23" laneChangedFrom="0" laneChangedTo="0"/>
        <edge id="36" sampledSeconds="541.01" traveltime="115.57" overlapTraveltime="116.23" density="0.34" occupancy="0.17" waitingTime="0.00" speed="13.73" departed="4" arrived="0" entered="1" left="4" laneChangedFrom="0" laneChangedTo="0"/>
        <edge id="37" sampledSeconds="8594.24" traveltime="188.82" overlapTraveltime="189.07" density="1.59" occupancy="0.80" waitingTime="0.00" speed="28.55" departed="4" arrived="18" entered="48" left="21" laneChangedFrom="0" laneChangedTo="0"/>
        <edge id="38" sampledSeconds="4658.97" traveltime="190.18" overlapTraveltime="190.92" density="0.86" occupancy="0.43" waitingTime="5.00" speed="28.27" departed="5" arrived="0" entered="22" left="23" laneChangedFrom="0" laneChangedTo="0"/>
        <edge id="39" sampledSeconds="2822.71" traveltime="101.20" overlapTraveltime="102.28" density="1.77" occupancy="0.89" waitingTime="7.00" speed="15.61" departed="8" arrived="0" entered="21" left="27" laneChangedFrom="0" laneChangedTo="0"/>
        <edge id="4" sampledSeconds="1377.71" traveltime="80.64" overlapTraveltime="81.27" density="0.99" occupancy="0.49" waitingTime="1.00" speed="17.19" departed="13" arrived="0" entered="4" left="17" laneChangedFrom="0" laneChangedTo="0"/>
        <edge id="40" sampledSeconds="2473.41" traveltime="278.90" overlapTraveltime="279.61" density="0.95" occupancy="0.48" waitingTime="0.00" speed="9.28" departed="6" arrived="0" entered="5" left="8" laneChangedFrom="0" laneChangedTo="0"/>
        <edge id="41" sampledSeconds="3328.50" traveltime="198.02" overlapTraveltime="198.91" density="1.86" occupancy="0.93" waitingTime="4.00" speed="9.03" departed="9" arrived="0" entered="10" left="15" laneChangedFrom="0" laneChangedTo="0"/>
        <edge id="42" sampledSeconds="695.00" traveltime="130.03" overlapTraveltime="130.72" density="0.58" occupancy="0.29" waitingTime="0.00" speed="9.15" departed="7" arrived="0" entered="0" left="5" laneChangedFrom="0" laneChangedTo="0"/>
        <edge id="43" sampledSeconds="3115.10" traveltime="347.68" overlapTraveltime="348.53" density="1.20" occupancy="0.60" waitingTime="3.00" speed="7.44" departed="11" arrived="0" entered="0" left="7" laneChangedFrom="0" laneChangedTo="0"/>
        <edge id="44" sampledSeconds="843.80" traveltime="198.59" overlapTraveltime="199.32" density="0.47" occupancy="0.24" waitingTime="0.00" speed="9.01" departed="5" arrived="0" entered="1" left="4" laneChangedFrom="0" laneChangedTo="0"/>
        <edge id="45" sampledSeconds="3331.92" traveltime="128.26" overlapTraveltime="128.65" density="1.67" occupancy="0.84" waitingTime="0.00" speed="15.51" departed="4" arrived="0" entered="26" left="23" laneChangedFrom="0" laneChangedTo="0"/>
        <edge id="46" sampledSeconds="2503.35" traveltime="71.57" overlapTraveltime="72.08" density="2.10" occupancy="1.05" waitingTime="0.00" speed="16.59" departed="5" arrived="0" entered="34" left="30" laneChangedFrom="0" laneChangedTo="0"/>
        <edge id="47" sampledSeconds="4438.89" traveltime="119.30" overlapTraveltime="119.82" density="3.73" occupancy="1.86" waitingTime="0.00" speed="9.98" departed="5" arrived="0" entered="34" left="34" laneChangedFrom="0" laneChangedTo="0"/>
        <edge id="48" sampledSeconds="1832.89" traveltime="173.77" overlapTraveltime="174.41" density="0.92" occupancy="0.46" waitingTime="0.00" speed="11.39" departed="9" arrived="0" entered="3" left="9" laneChangedFrom="0" laneChangedTo="0"/>
        <edge id="49" sampledSeconds="1709.81" traveltime="40.87" overlapTraveltime="41.22" density="1.44" occupancy="0.72" waitingTime="0.00" speed="28.94" departed="10" arrived="0" entered="32" left="41" laneChangedFrom="0" laneChangedTo="0"/>
        <edge id="5" sampledSeconds="1988.62" traveltime="58.65" overlapTraveltime="58.91" density="1.43" occupancy="0.71" waitingTime="0.00" speed="23.71" departed="6" arrived="11" entered="29" left="22" laneChangedFrom="0" laneChangedTo="0"/>
        <edge id="50" sampledSeconds="4063.93" traveltime="159.31" overlapTraveltime="160.11" density="2.04" occupancy="1.02" waitingTime="5.00" speed="12.45" departed="9" arrived="0" entered="17" left="25" laneChangedFrom="0" laneChangedTo="0"/>
        <edge id="51" sampledSeconds="615.28" traveltime="282.28" overlapTraveltime="283.05" density="0.27" occupancy="0.13" waitingTime="0.00" speed="8.19" departed="3" arrived="0" entered="0" left="2" laneChangedFrom="0" laneChangedTo="0"/>
        <edge id="52" sampledSeconds="1635.89" traveltime="40.85" overlapTraveltime="41.48" density="1.38" occupancy="0.69" waitingTime="11.00" speed="28.76" departed="10" arrived="0" entered="32" left="37" laneChangedFrom="0" laneChangedTo="0"/>
        <edge id="53" sampledSeconds="5065.29" traveltime="110.85" overlapTraveltime="111.38" density="3.64" occupancy="1.82" waitingTime="1.00" speed="12.54" departed="11" arrived="0" entered="39" left="38" laneChangedFrom="0" laneChangedTo="0"/>
        <edge id="54" sampledSeconds="1847.53" traveltime="48.39" overlapTraveltime="48.66" density="1.55" occupancy="0.77" waitingTime="0.00" speed="24.60" departed="4" arrived="18" entered="34" left="20" laneChangedFrom="0" laneChangedTo="0"/>
        <edge id="55" sampledSeconds="1591.58" traveltime="162.85" overlapTraveltime="163.76" density="0.80" occupancy="0.40" waitingTime="21.00" speed="12.18" departed="10" arrived="0" entered="1" left="9" laneChangedFrom="0" laneChangedTo="0"/>
        <edge id="56" sampledSeconds="7027.33" traveltime="215.54" overlapTraveltime="215.85" density="1.23" occupancy="0.61" waitingTime="0.00" speed="26.58" departed="9" arrived="9" entered="33" left="15" laneChangedFrom="0" laneChangedTo="0"/>
        <edge id="57" sampledSeconds="2944.50" traveltime="130.23" overlapTraveltime="131.11" density="1.48" occupancy="0.74" waitingTime="9.00" speed="15.22" departed="4" arrived="0" entered="20" left="20" laneChangedFrom="0" laneChangedTo="0"/>
        <edge id="58" sampledSeconds="3199.19" traveltime="110.60" overlapTraveltime="111.00" density="2.30" occupancy="1.15" waitingTime="0.00" speed="12.58" departed="7" arrived="0" entered="23" left="28" laneChangedFrom="0" laneChangedTo="0"/>
        <edge id="59" sampledSeconds="5056.31" traveltime="240.56" overlapTraveltime="241.04" density="1.82" occupancy="0.91" waitingTime="0.00" speed="11.54" departed="5" arrived="11" entered="22" left="3" laneChangedFrom="0" laneChangedTo="0"/>
        <edge id="6" sampledSeconds="1833.18" traveltime="94.97" overlapTraveltime="95.70" density="1.15" occupancy="0.58" waitingTime="5.00" speed="16.67" departed="7" arrived="0" entered="14" left="19" laneChangedFrom="0" laneChangedTo="0"/>
        <edge id="60" sampledSeconds="4722.13" traveltime="215.60" overlapTraveltime="216.08" density="0.82" occupancy="0.41" waitingTime="0.00" speed="26.55" departed="6" arrived="0" entered="19" left="20" laneChangedFrom="0" laneChangedTo="0"/>
        <edge id="61" sampledSeconds="1324.03" traveltime="242.70" overlapTraveltime="243.47" density="0.48" occupancy="0.24" waitingTime="1.00" speed="11.42" departed="4" arrived="0" entered="2" left="4" laneChangedFrom="0" laneChangedTo="0"/>
        <edge id="62" sampledSeconds="4047.05" traveltime="222.26" overlapTraveltime="223.14" density="2.04" occupancy="1.02" waitingTime="5.00" speed="8.92" departed="5" arrived="0" entered="15" left="17" laneChangedFrom="0" laneChangedTo="0"/>
        <edge id="63" sampledSeconds="2283.34" traveltime="217.41" overlapTraveltime="218.02" density="0.90" occupancy="0.45" waitingTime="0.00" speed="11.68" departed="5" arrived="0" entered="8" left="8" laneChangedFrom="0" laneChangedTo="0"/>
        <edge id="64" sampledSeconds="7766.71" traveltime="221.39" overlapTraveltime="221.96" density="3.91" occupancy="1.96" waitingTime="0.00" speed="8.96" departed="4" arrived="8" entered="37" left="18" laneChangedFrom="0" laneChangedTo="0"/>
        <edge id="65" sampledSeconds="1379.89" traveltime="128.39" overlapTraveltime="128.93" density="0.87" occupancy="0.43" waitingTime="0.00" speed="12.35" departed="11" arrived="0" entered="0" left="10" laneChangedFrom="0" laneChangedTo="0"/>
        <edge id="66" sampledSeconds="4629.17" traveltime="127.40" overlapTraveltime="127.78" density="2.59" occupancy="1.29" waitingTime="0.00" speed="14.05" departed="7" arrived="0" entered="32" left="31" laneChangedFrom="0" laneChangedTo="0"/>
        <edge id="67" sampledSeconds="1407.57" traveltime="72.25" overlapTraveltime="72.91" density="1.18" occupancy="0.59" waitingTime="1.00" speed="16.40" departed="8" arrived="0" entered="12" left="19" laneChangedFrom="0" laneChangedTo="0"/>
        <edge id="68" sampledSeconds="5848.46" traveltime="254.55" overlapTraveltime="255.14" density="2.30" occupancy="1.15" waitingTime="0.00" speed="9.98" departed="6" arrived="10" entered="21" left="8" laneChangedFrom="0" laneChangedTo="0"/>
        <edge id="69" sampledSeconds="1931.56" traveltime="60.05" overlapTraveltime="60.41" density="1.22" occupancy="0.61" waitingTime="0.00" speed="26.35" departed="8" arrived="0" entered="26" left="31" laneChangedFrom="0" laneChangedTo="0"/>
        <edge id="7" sampledSeconds="3188.92" traveltime="94.99" overlapTraveltime="95.21" density="1.33" occupancy="0.67" waitingTime="0.00" speed="25.16" departed="5" arrived="0" entered="29" left="32" laneChangedFrom="0" laneChangedTo="0"/>
        <edge id="70" sampledSeconds="949.01" traveltime="174.37" overlapTraveltime="175.11" density="0.53" occupancy="0.27" waitingTime="0.00" speed="10.25" departed="6" arrived="0" entered="0" left="5" laneChangedFrom="0" laneChangedTo="0"/>
        <edge id="71" sampledSeconds="945.36" traveltime="129.69" overlapTraveltime="130.39" density="0.79" occupancy="0.40" waitingTime="0.00" speed="9.17" departed="7" arrived="0" entered="1" left="7" laneChangedFrom="0" laneChangedTo="0"/>
        <edge id="72" sampledSeconds="2470.18" traveltime="174.23" overlapTraveltime="175.11" density="1.38" occupancy="0.69" waitingTime="12.00" speed="10.25" departed="6" arrived="0" entered="11" left="11" laneChangedFrom="0" laneChangedTo="0"/>
        <edge id="73" sampledSeconds="1657.32" traveltime="154.90" overlapTraveltime="155.69" density="1.04" occupancy="0.52" waitingTime="3.00" speed="10.25" departed="7" arrived="0" entered="6" left="9" laneChangedFrom="0" laneChangedTo="0"/>
        <edge id="74" sampledSeconds="4610.77" traveltime="100.47" overlapTraveltime="100.80" density="2.90" occupancy="1.45" waitingTime="0.00" speed="15.84" departed="5" arrived="18" entered="49" left="22" laneChangedFrom="0" laneChangedTo="0"/>
        <edge id="75" sampledSeconds="2995.73" traveltime="129.33" overlapTraveltime="130.13" density="1.67" occupancy="0.84" waitingTime="4.00" speed="13.80" departed="8" arrived="0" entered="17" left="21" laneChangedFrom="0" laneChangedTo="0"/>
        <edge id="76" sampledSeconds="1275.83" traveltime="155.32" overlapTraveltime="156.00" density="0.80" occupancy="0.40" waitingTime="0.00" speed="10.23" departed="8" arrived="0" entered="1" left="8" laneChangedFrom="0" laneChangedTo="0"/>
        <edge id="8" sampledSeconds="3691.10" traveltime="95.77" overlapTraveltime="96.47" density="2.32" occupancy="1.16" waitingTime="1.00" speed="16.54" departed="10" arrived="0" entered="29" left="37" laneChangedFrom="0" laneChangedTo="0"/>
        <edge id="9" sampledSeconds="2172.83" traveltime="85.01" overlapTraveltime="85.51" density="1.21" occupancy="0.61" waitingTime="1.00" speed="21.00" departed="6" arrived="0" entered="20" left="24" laneChangedFrom="0" laneChangedTo="0"/>
    </interval>
    <interval begin="1000.00" end="2000.00" id="2">
        <edge id="1" sampledSeconds="13436.18" traveltime="222.06" overlapTraveltime="222.33" density="2.49" occupancy="1.25" waitingTime="1.00" speed="24.28" departed="8" arrived="40" entered="56" left="17" laneChangedFrom="0" laneChangedTo="0"/>
        <edge id="10" sampledSeconds="2565.29" traveltime="232.02" overlapTraveltime="232.79" density="1.07" occupancy="0.54" waitingTime="2.00" speed="10.29" departed="11" arrived="0" entered="0" left="12" laneChangedFrom="0" laneChangedTo="0"/>
        <edge id="11" sampledSeconds="3865.08" traveltime="85.31" overlapTraveltime="85.72" density="2.16" occupancy="1.08" waitingTime="1.00" speed="20.95" departed="12" arrived="0" entered="35" left="41" laneChangedFrom="0" laneChangedTo="0"/>
        <edge id="12" sampledSeconds="6211.65" traveltime="126.19" overlapTraveltime="126.93" density="3.12" occupancy="1.56" waitingTime="4.00" speed="15.72" departed="4" arrived="0" entered="47" left="47" laneChangedFrom="0" laneChangedTo="0"/>
        <edge id="13" sampledSeconds="694.83" traveltime="133.42" overlapTraveltime="134.31" density="0.58" occupancy="0.29" waitingTime="0.00" speed="8.90" departed="6" arrived="0" entered="0" left="4" laneChangedFrom="0" laneChangedTo="0"/>
        <edge id="14" sampledSeconds="6888.59" traveltime="78.06" overlapTraveltime="78.36" density="4.95" occupancy="2.47" waitingTime="0.00" speed="17.83" departed="8" arrived="32" entered="80" left="54" laneChangedFrom="0" laneChangedTo="0"/>
        <edge id="15" sampledSeconds="3956.17" traveltime="126.10" overlapTraveltime="126.49" density="1.99" occupancy="0.99" waitingTime="0.00" speed="15.78" departed="7" arrived="0" entered="23" left="32" laneChangedFrom="0" laneChangedTo="0"/>
        <edge id="16" sampledSeconds="3191.93" traveltime="63.78" overlapTraveltime="64.47" density="2.68" occupancy="1.34" waitingTime="0.00" speed="18.54" departed="3" arrived="0" entered="46" left="50" laneChangedFrom="0" laneChangedTo="0"/>
        <edge id="17" sampledSeconds="4426.69" traveltime="131.11" overlapTraveltime="131.98" density="2.22" occupancy="1.11" waitingTime="27.00" speed="15.13" departed="8" arrived="0" entered="24" left="36" laneChangedFrom="0" laneChangedTo="0"/>
        <edge id="18" sampledSeconds="1868.56" traveltime="49.57" overlapTraveltime="50.16" density="1.57" occupancy="0.78" waitingTime="1.00" speed="23.86" departed="8" arrived="0" entered="31" left="36" laneChangedFrom="0" laneChangedTo="0"/>
        <edge id="19" sampledSeconds="5130.70" traveltime="63.21" overlapTraveltime="63.67" density="4.31" occupancy="2.15" waitingTime="0.00" speed="18.78" departed="3" arrived="0" entered="77" left="81" laneChangedFrom="0" laneChangedTo="0"/>
        <edge id="2" sampledSeconds="660.21" traveltime="59.63" overlapTraveltime="60.10" density="0.47" occupancy="0.24" waitingTime="0.00" speed="23.24" departed="4" arrived="0" entered="7" left="11" laneChangedFrom="0" laneChangedTo="0"/>
        <edge id="20" sampledSeconds="9257.11" traveltime="128.70" overlapTraveltime="129.05" density="4.65" occupancy="2.32" waitingTime="0.00" speed="15.47" departed="12" arrived="40" entered="59" left="34" laneChangedFrom="0" laneChangedTo="0"/>
        <edge id="21" sampledSeconds="1909.25" traveltime="256.82" overlapTraveltime="257.53" density="0.96" occupancy="0.48" waitingTime="0.00" speed="7.75" departed="7" arrived="0" entered="0" left="7" laneChangedFrom="0" laneChangedTo="0"/>
        <edge id="22" sampledSeconds="5019.32" traveltime="119.72" overlapTraveltime="120.25" density="4.22" occupancy="2.11" waitingTime="0.00" speed="9.94" departed="14" arrived="0" entered="28" left="43" laneChangedFrom="0" laneChangedTo="0"/>
        <edge id="23" sampledSeconds="1517.85" traveltime="131.61" overlapTraveltime="132.45" density="1.27" occupancy="0.64" waitingTime="1.00" speed="9.03" departed="3" arrived="0" entered="8" left="12" laneChangedFrom="0" laneChangedTo="0"/>
        <edge id="24" sampledSeconds="3873.09" traveltime="259.06" overlapTraveltime="260.02" density="1.95" occupancy="0.97" waitingTime="22.00" speed="7.67" departed="11" arrived="0" entered="5" left="13" laneChangedFrom="0" laneChangedTo="0"/>
        <edge id="25" sampledSeconds="2872.07" traveltime="227.29" overlapTraveltime="228.32" density="2.41" occupancy="1.21" waitingTime="11.00" speed="5.24" departed="7" arrived="0" entered="5" left="14" laneChangedFrom="0" laneChangedTo="0"/>
        <edge id="26" sampledSeconds="1614.41" traveltime="226.39" overlapTraveltime="227.27" density="1.36" occupancy="0.68" waitingTime="0.00" speed="5.26" departed="8" arrived="0" entered="0" left="7" laneChangedFrom="0" laneChangedTo="0"/>
        <edge id="27" sampledSeconds="3924.38" traveltime="277.29" overlapTraveltime="278.04" density="2.19" occupancy="1.10" waitingTime="0.00" speed="6.46" departed="4" arrived="0" entered="11" left="14" laneChangedFrom="0" laneChangedTo="0"/>
        <edge id="28" sampledSeconds="8006.37" traveltime="345.19" overlapTraveltime="345.80" density="3.09" occupancy="1.55" waitingTime="0.00" speed="7.50" departed="6" arrived="0" entered="14" left="28" laneChangedFrom="0" laneChangedTo="0"/>
        <edge id="29" sampledSeconds="5656.01" traveltime="174.29" overlapTraveltime="175.18" density="2.85" occupancy="1.43" waitingTime="23.00" speed="11.34" departed="10" arrived="0" entered="26" left="30" laneChangedFrom="0" laneChangedTo="0"/>
        <edge id="3" sampledSeconds="13652.24" traveltime="221.63" overlapTraveltime="222.12" density="2.53" occupancy="1.27" waitingTime="1.00" speed="24.30" departed="6" arrived="38" entered="52" left="28" laneChangedFrom="0" laneChangedTo="0"/>
        <edge id="30" sampledSeconds="2985.71" traveltime="283.73" overlapTraveltime="284.84" density="1.29" occupancy="0.65" waitingTime="9.00" speed="8.13" departed="9" arrived="0" entered="0" left="12" laneChangedFrom="0" laneChangedTo="0"/>
        <edge id="31" sampledSeconds="3230.03" traveltime="230.47" overlapTraveltime="231.11" density="1.35" occupancy="0.68" waitingTime="0.00" speed="10.37" departed="9" arrived="0" entered="6" left="13" laneChangedFrom="0" laneChangedTo="0"/>
        <edge id="32" sampledSeconds="3146.93" traveltime="277.90" overlapTraveltime="278.62" density="1.76" occupancy="0.88" waitingTime="0.00" speed="6.44" departed="8" arrived="0" entered="5" left="11" laneChangedFrom="0" laneChangedTo="0"/>
        <edge id="33" sampledSeconds="3780.30" traveltime="115.01" overlapTraveltime="115.81" density="2.38" occupancy="1.19" waitingTime="9.00" speed="13.78" departed="3" arrived="0" entered="29" left="32" laneChangedFrom="0" laneChangedTo="0"/>
        <edge id="34" sampledSeconds="2061.98" traveltime="278.57" overlapTraveltime="279.22" density="0.80" occupancy="0.40" waitingTime="0.00" speed="9.30" departed="4" arrived="0" entered="5" left="7" laneChangedFrom="0" laneChangedTo="0"/>
        <edge id="35" sampledSeconds="4502.60" traveltime="93.50" overlapTraveltime="93.72" density="1.88" occupancy="0.94" waitingTime="0.00" speed="25.56" departed="5" arrived="0" entered="40" left="49" laneChangedFrom="0" laneChangedTo="0"/>
        <edge id="36" sampledSeconds="1265.47" traveltime="115.59" overlapTraveltime="116.11" density="0.80" occupancy="0.40" waitingTime="0.00" speed="13.74" departed="9" arrived="0" entered="3" left="9" laneChangedFrom="0" laneChangedTo="0"/>
        <edge id="37" sampledSeconds="12988.47" traveltime="188.87" overlapTraveltime="189.09" density="2.41" occupancy="1.20" waitingTime="0.00" speed="28.54" departed="5" arrived="46" entered="63" left="24" laneChangedFrom="0" laneChangedTo="0"/>
        <edge id="38" sampledSeconds="9003.35" traveltime="189.03" overlapTraveltime="189.78" density="1.67" occupancy="0.83" waitingTime="16.00" speed="28.44" departed="3" arrived="0" entered="45" left="46" laneChangedFrom="0" laneChangedTo="0"/>
        <edge id="39" sampledSeconds="3245.37" traveltime="100.56" overlapTraveltime="101.11" density="2.04" occupancy="1.02" waitingTime="0.00" speed="15.80" departed="5" arrived="0" entered="27" left="32" laneChangedFrom="0" laneChangedTo="0"/>
        <edge id="4" sampledSeconds="1756.20" traveltime="78.75" overlapTraveltime="79.33" density="1.26" occupancy="0.63" waitingTime="1.00" speed="17.61" departed="5" arrived="0" entered="18" left="21" laneChangedFrom="0" laneChangedTo="0"/>
        <edge id="40" sampledSeconds="2765.78" traveltime="279.05" overlapTraveltime="279.87" density="1.07" occupancy="0.53" waitingTime="1.00" speed="9.27" departed="5" arrived="0" entered="6" left="10" laneChangedFrom="0" laneChangedTo="0"/>
        <edge id="41" sampledSeconds="5006.67" traveltime="197.95" overlapTraveltime="198.71" density="2.80" occupancy="1.40" waitingTime="7.00" speed="9.04" departed="10" arrived="0" entered="14" left="24" laneChangedFrom="0" laneChangedTo="0"/>
        <edge id="42" sampledSeconds="1509.28" traveltime="129.26" overlapTraveltime="129.94" density="1.27" occupancy="0.63" waitingTime="0.00" speed="9.20" departed="9" arrived="0" entered="1" left="12" laneChangedFrom="0" laneChangedTo="0"/>
        <edge id="43" sampledSeconds="2697.31" traveltime="346.39" overlapTraveltime="347.15" density="1.04" occupancy="0.52" waitingTime="0.00" speed="7.47" departed="8" arrived="0" entered="0" left="8" laneChangedFrom="0" laneChangedTo="0"/>
        <edge id="44" sampledSeconds="1467.41" traveltime="198.17" overlapTraveltime="198.93" density="0.82" occupancy="0.41" waitingTime="0.00" speed="9.03" departed="6" arrived="0" entered="0" left="7" laneChangedFrom="0" laneChangedTo="0"/>
        <edge id="45" sampledSeconds="6590.89" traveltime="127.92" overlapTraveltime="128.31" density="3.31" occupancy="1.66" waitingTime="0.00" speed="15.55" departed="3" arrived="0" entered="49" left="51" laneChangedFrom="0" laneChangedTo="0"/>