<?xml version="1.0" encoding="UTF-8"?>

<!-- generated on 02/12/18 15:53:52 by SUMO Version 0.30.0
<?xml version="1.0" encoding="UTF-8"?>

<configuration xmlns:xsi="http://www.w3.org/2001/XMLSchema-instance" xsi:noNamespaceSchemaLocation="http://sumo.dlr.de/xsd/sumoConfiguration.xsd">

    <input>
        <net-file value="C:/Users/Shekar/Desktop/laptop/sumo_sim/sioux_falls/config/../network/sf_net.net.xml"/>
        <route-files value="C:/Users/Shekar/Desktop/laptop/sumo_sim/sioux_falls/config/../trips/trip.xml"/>
        <additional-files value="C:/Users/Shekar/Desktop/laptop/sumo_sim/sioux_falls/config/additional_54__0_1000.xml"/>
    </input>

    <output>
        <summary-output value="C:/Users/Shekar/Desktop/laptop/sumo_sim/sioux_falls/config/../output/summary_54__0_1000.xml"/>
    </output>

    <processing>
        <time-to-teleport value="300"/>
    </processing>

    <report>
        <log value="C:/Users/Shekar/Desktop/laptop/sumo_sim/sioux_falls/config/../output/report_54__0_1000.xml"/>
    </report>

</configuration>
-->

<meandata xmlns:xsi="http://www.w3.org/2001/XMLSchema-instance" xsi:noNamespaceSchemaLocation="http://sumo.dlr.de/xsd/meandata_file.xsd">
    <interval begin="0.00" end="1000.00" id="1">
        <edge id="1" sampledSeconds="5427.17" traveltime="222.54" overlapTraveltime="222.88" density="1.01" occupancy="0.50" waitingTime="4.00" speed="24.22" departed="6" arrived="10" entered="24" left="8" laneChangedFrom="0" laneChangedTo="0"/>
        <edge id="10" sampledSeconds="1643.07" traveltime="231.51" overlapTraveltime="232.08" density="0.69" occupancy="0.34" waitingTime="0.00" speed="10.32" departed="8" arrived="0" entered="0" left="5" laneChangedFrom="0" laneChangedTo="0"/>
        <edge id="11" sampledSeconds="2179.40" traveltime="84.82" overlapTraveltime="85.14" density="1.22" occupancy="0.61" waitingTime="0.00" speed="21.09" departed="4" arrived="0" entered="24" left="25" laneChangedFrom="0" laneChangedTo="0"/>
        <edge id="12" sampledSeconds="4436.13" traveltime="126.63" overlapTraveltime="127.29" density="2.23" occupancy="1.11" waitingTime="7.00" speed="15.68" departed="5" arrived="0" entered="31" left="34" laneChangedFrom="0" laneChangedTo="0"/>
        <edge id="13" sampledSeconds="1063.76" traveltime="132.80" overlapTraveltime="133.54" density="0.89" occupancy="0.45" waitingTime="0.00" speed="8.95" departed="8" arrived="0" entered="0" left="8" laneChangedFrom="0" laneChangedTo="0"/>
        <edge id="14" sampledSeconds="4205.82" traveltime="78.10" overlapTraveltime="78.37" density="3.02" occupancy="1.51" waitingTime="0.00" speed="17.82" departed="5" arrived="16" entered="55" left="32" laneChangedFrom="0" laneChangedTo="0"/>
        <edge id="15" sampledSeconds="2938.36" traveltime="126.52" overlapTraveltime="126.91" density="1.48" occupancy="0.74" waitingTime="0.00" speed="15.72" departed="10" arrived="0" entered="15" left="22" laneChangedFrom="0" laneChangedTo="0"/>
        <edge id="16" sampledSeconds="2493.93" traveltime="63.77" overlapTraveltime="64.48" density="2.09" occupancy="1.05" waitingTime="0.00" speed="18.54" departed="5" arrived="0" entered="35" left="37" laneChangedFrom="0" laneChangedTo="0"/>
        <edge id="17" sampledSeconds="1866.85" traveltime="132.01" overlapTraveltime="132.83" density="0.94" occupancy="0.47" waitingTime="2.00" speed="15.03" departed="11" arrived="0" entered="5" left="13" laneChangedFrom="0" laneChangedTo="0"/>
        <edge id="18" sampledSeconds="972.80" traveltime="48.45" overlapTraveltime="48.68" density="0.82" occupancy="0.41" waitingTime="0.00" speed="24.59" departed="4" arrived="0" entered="16" left="20" laneChangedFrom="0" laneChangedTo="0"/>
        <edge id="19" sampledSeconds="3719.09" traveltime="63.54" overlapTraveltime="63.99" density="3.12" occupancy="1.56" waitingTime="2.00" speed="18.68" departed="10" arrived="0" entered="51" left="54" laneChangedFrom="0" laneChangedTo="0"/>
        <edge id="2" sampledSeconds="748.50" traveltime="61.38" overlapTraveltime="62.51" density="0.54" occupancy="0.27" waitingTime="5.00" speed="22.35" departed="7" arrived="0" entered="5" left="12" laneChangedFrom="0" laneChangedTo="0"/>
        <edge id="20" sampledSeconds="4992.84" traveltime="129.17" overlapTraveltime="129.54" density="2.51" occupancy="1.25" waitingTime="0.00" speed="15.42" departed="9" arrived="18" entered="34" left="17" laneChangedFrom="0" laneChangedTo="0"/>
        <edge id="21" sampledSeconds="907.30" traveltime="257.25" overlapTraveltime="257.96" density="0.46" occupancy="0.23" waitingTime="0.00" speed="7.74" departed="4" arrived="0" entered="0" left="3" laneChangedFrom="0" laneChangedTo="0"/>
        <edge id="22" sampledSeconds="3147.24" traveltime="119.19" overlapTraveltime="119.67" density="2.64" occupancy="1.32" waitingTime="0.00" speed="9.99" departed="5" arrived="0" entered="24" left="24" laneChangedFrom="0" laneChangedTo="0"/>
        <edge id="23" sampledSeconds="1379.06" traveltime="132.56" overlapTraveltime="133.47" density="1.16" occupancy="0.58" waitingTime="3.00" speed="8.96" departed="6" arrived="0" entered="6" left="9" laneChangedFrom="0" laneChangedTo="0"/>
        <edge id="24" sampledSeconds="2593.10" traveltime="258.53" overlapTraveltime="259.71" density="1.30" occupancy="0.65" waitingTime="13.00" speed="7.68" departed="6" arrived="0" entered="4" left="10" laneChangedFrom="0" laneChangedTo="0"/>
        <edge id="25" sampledSeconds="2089.22" traveltime="226.55" overlapTraveltime="227.46" density="1.75" occupancy="0.88" waitingTime="0.00" speed="5.26" departed="8" arrived="0" entered="3" left="6" laneChangedFrom="0" laneChangedTo="0"/>
        <edge id="26" sampledSeconds="508.36" traveltime="225.95" overlapTraveltime="226.88" density="0.43" occupancy="0.21" waitingTime="0.00" speed="5.27" departed="2" arrived="0" entered="1" left="2" laneChangedFrom="0" laneChangedTo="0"/>
        <edge id="27" sampledSeconds="2023.10" traveltime="278.42" overlapTraveltime="279.21" density="1.13" occupancy="0.56" waitingTime="0.00" speed="6.43" departed="4" arrived="0" entered="5" left="6" laneChangedFrom="0" laneChangedTo="0"/>
        <edge id="28" sampledSeconds="4760.07" traveltime="346.53" overlapTraveltime="347.20" density="1.84" occupancy="0.92" waitingTime="0.00" speed="7.47" departed="11" arrived="0" entered="10" left="7" laneChangedFrom="0" laneChangedTo="0"/>
        <edge id="29" sampledSeconds="3056.19" traveltime="174.45" overlapTraveltime="175.40" density="1.54" occupancy="0.77" waitingTime="12.00" speed="11.33" departed="4" arrived="0" entered="14" left="16" laneChangedFrom="0" laneChangedTo="0"/>
        <edge id="3" sampledSeconds="5935.61" traveltime="221.91" overlapTraveltime="222.22" density="1.10" occupancy="0.55" waitingTime="0.00" speed="24.29" departed="3" arrived="10" entered="36" left="7" laneChangedFrom="0" laneChangedTo="0"/>
        <edge id="30" sampledSeconds="1137.99" traveltime="283.50" overlapTraveltime="284.16" density="0.49" occupancy="0.25" waitingTime="0.00" speed="8.15" departed="6" arrived="0" entered="1" left="2" laneChangedFrom="0" laneChangedTo="0"/>
        <edge id="31" sampledSeconds="1037.96" traveltime="233.60" overlapTraveltime="234.53" density="0.43" occupancy="0.22" waitingTime="9.00" speed="10.21" departed="4" arrived="0" entered="1" left="4" laneChangedFrom="0" laneChangedTo="0"/>
        <edge id="32" sampledSeconds="2368.73" traveltime="277.70" overlapTraveltime="278.40" density="1.32" occupancy="0.66" waitingTime="0.00" speed="6.45" departed="6" arrived="0" entered="3" left="8" laneChangedFrom="0" laneChangedTo="0"/>
        <edge id="33" sampledSeconds="2422.89" traveltime="115.26" overlapTraveltime="116.10" density="1.52" occupancy="0.76" waitingTime="7.00" speed="13.74" departed="4" arrived="0" entered="20" left="19" laneChangedFrom="0" laneChangedTo="0"/>
        <edge id="34" sampledSeconds="1385.11" traveltime="280.19" overlapTraveltime="280.86" density="0.53" occupancy="0.27" waitingTime="0.00" speed="9.24" departed="6" arrived="0" entered="0" left="4" laneChangedFrom="0" laneChangedTo="0"/>
        <edge id="35" sampledSeconds="2520.00" traveltime="95.03" overlapTraveltime="95.33" density="1.05" occupancy="0.53" waitingTime="0.00" speed="25.13" departed="7" arrived="0" entered="24" left="23" laneChangedFrom="0" laneChangedTo="0"/>
        <edge id="36" sampledSeconds="539.85" traveltime="115.46" overlapTraveltime="116.19" density="0.34" occupancy="0.17" waitingTime="0.00" speed="13.73" departed="4" arrived="0" entered="1" left="4" laneChangedFrom="0" laneChangedTo="0"/>
        <edge id="37" sampledSeconds="8551.26" traveltime="188.88" overlapTraveltime="189.13" density="1.59" occupancy="0.79" waitingTime="0.00" speed="28.54" departed="4" arrived="18" entered="48" left="21" laneChangedFrom="0" laneChangedTo="0"/>
        <edge id="38" sampledSeconds="4450.12" traveltime="189.76" overlapTraveltime="190.19" density="0.83" occupancy="0.41" waitingTime="0.00" speed="28.38" departed="5" arrived="0" entered="21" left="22" laneChangedFrom="0" laneChangedTo="0"/>
        <edge id="39" sampledSeconds="2828.28" traveltime="101.47" overlapTraveltime="102.29" density="1.78" occupancy="0.89" waitingTime="3.00" speed="15.61" departed="8" arrived="0" entered="21" left="27" laneChangedFrom="0" laneChangedTo="0"/>
        <edge id="4" sampledSeconds="1376.95" traveltime="80.65" overlapTraveltime="81.22" density="0.99" occupancy="0.49" waitingTime="1.00" speed="17.20" departed="13" arrived="0" entered="4" left="17" laneChangedFrom="0" laneChangedTo="0"/>
        <edge id="40" sampledSeconds="2749.37" traveltime="278.47" overlapTraveltime="279.14" density="1.06" occupancy="0.53" waitingTime="0.00" speed="9.30" departed="6" arrived="0" entered="6" left="9" laneChangedFrom="0" laneChangedTo="0"/>
        <edge id="41" sampledSeconds="3317.40" traveltime="197.52" overlapTraveltime="198.20" density="1.85" occupancy="0.93" waitingTime="1.00" speed="9.06" departed="9" arrived="0" entered="10" left="15" laneChangedFrom="0" laneChangedTo="0"/>
        <edge id="42" sampledSeconds="696.30" traveltime="130.17" overlapTraveltime="130.90" density="0.58" occupancy="0.29" waitingTime="0.00" speed="9.13" departed="7" arrived="0" entered="0" left="5" laneChangedFrom="0" laneChangedTo="0"/>
        <edge id="43" sampledSeconds="3113.19" traveltime="347.91" overlapTraveltime="348.86" density="1.20" occupancy="0.60" waitingTime="1.00" speed="7.43" departed="11" arrived="0" entered="0" left="7" laneChangedFrom="0" laneChangedTo="0"/>
        <edge id="44" sampledSeconds="1045.82" traveltime="199.26" overlapTraveltime="199.98" density="0.58" occupancy="0.29" waitingTime="0.00" speed="8.98" departed="5" arrived="0" entered="2" left="5" laneChangedFrom="0" laneChangedTo="0"/>
        <edge id="45" sampledSeconds="4028.86" traveltime="127.96" overlapTraveltime="128.35" density="2.02" occupancy="1.01" waitingTime="0.00" speed="15.55" departed="4" arrived="0" entered="31" left="28" laneChangedFrom="0" laneChangedTo="0"/>
        <edge id="46" sampledSeconds="2440.22" traveltime="71.41" overlapTraveltime="71.93" density="2.05" occupancy="1.02" waitingTime="0.00" speed="16.62" departed="5" arrived="0" entered="33" left="29" laneChangedFrom="0" laneChangedTo="0"/>
        <edge id="47" sampledSeconds="6285.74" traveltime="119.14" overlapTraveltime="119.63" density="5.28" occupancy="2.64" waitingTime="0.00" speed="9.99" departed="5" arrived="0" entered="50" left="49" laneChangedFrom="0" laneChangedTo="0"/>
        <edge id="48" sampledSeconds="1668.47" traveltime="174.04" overlapTraveltime="175.23" density="0.84" occupancy="0.42" waitingTime="2.00" speed="11.34" departed="9" arrived="0" entered="2" left="8" laneChangedFrom="0" laneChangedTo="0"/>
        <edge id="49" sampledSeconds="1706.13" traveltime="40.74" overlapTraveltime="41.10" density="1.44" occupancy="0.72" waitingTime="0.00" speed="29.03" departed="10" arrived="0" entered="32" left="41" laneChangedFrom="0" laneChangedTo="0"/>
        <edge id="5" sampledSeconds="1964.22" traveltime="58.78" overlapTraveltime="59.05" density="1.41" occupancy="0.71" waitingTime="0.00" speed="23.66" departed="6" arrived="10" entered="29" left="22" laneChangedFrom="0" laneChangedTo="0"/>
        <edge id="50" sampledSeconds="4049.94" traveltime="158.99" overlapTraveltime="159.58" density="2.04" occupancy="1.02" waitingTime="10.00" speed="12.50" departed="9" arrived="10" entered="17" left="15" laneChangedFrom="0" laneChangedTo="0"/>
        <edge id="51" sampledSeconds="617.20" traveltime="283.95" overlapTraveltime="284.68" density="0.27" occupancy="0.13" waitingTime="0.00" speed="8.14" departed="3" arrived="0" entered="0" left="2" laneChangedFrom="0" laneChangedTo="0"/>
        <edge id="52" sampledSeconds="1797.77" traveltime="40.70" overlapTraveltime="41.26" density="1.51" occupancy="0.76" waitingTime="5.00" speed="28.92" departed="10" arrived="0" entered="36" left="41" laneChangedFrom="0" laneChangedTo="0"/>
        <edge id="53" sampledSeconds="5047.34" traveltime="111.17" overlapTraveltime="111.77" density="3.63" occupancy="1.81" waitingTime="1.00" speed="12.50" departed="11" arrived="0" entered="39" left="39" laneChangedFrom="0" laneChangedTo="0"/>
        <edge id="54" sampledSeconds="217.60" traveltime="54.02" overlapTraveltime="54.63" density="0.18" occupancy="0.09" waitingTime="0.00" speed="21.91" departed="4" arrived="0" entered="0" left="4" laneChangedFrom="0" laneChangedTo="0"/>
        <edge id="55" sampledSeconds="3430.94" traveltime="159.82" overlapTraveltime="160.69" density="1.72" occupancy="0.86" waitingTime="7.00" speed="12.41" departed="10" arrived="0" entered="13" left="20" laneChangedFrom="0" laneChangedTo="0"/>
        <edge id="56" sampledSeconds="7015.86" traveltime="215.63" overlapTraveltime="215.93" density="1.22" occupancy="0.61" waitingTime="0.00" speed="26.57" departed="9" arrived="9" entered="33" left="15" laneChangedFrom="0" laneChangedTo="0"/>
        <edge id="57" sampledSeconds="2934.03" traveltime="129.86" overlapTraveltime="130.62" density="1.47" occupancy="0.74" waitingTime="12.00" speed="15.28" departed="4" arrived="0" entered="20" left="20" laneChangedFrom="0" laneChangedTo="0"/>
        <edge id="58" sampledSeconds="3639.68" traveltime="110.54" overlapTraveltime="110.93" density="2.61" occupancy="1.31" waitingTime="0.00" speed="12.59" departed="7" arrived="0" entered="27" left="32" laneChangedFrom="0" laneChangedTo="0"/>
        <edge id="59" sampledSeconds="5105.01" traveltime="240.63" overlapTraveltime="241.10" density="1.84" occupancy="0.92" waitingTime="0.00" speed="11.53" departed="5" arrived="11" entered="23" left="3" laneChangedFrom="0" laneChangedTo="0"/>
        <edge id="6" sampledSeconds="1824.57" traveltime="94.87" overlapTraveltime="95.20" density="1.15" occupancy="0.57" waitingTime="0.00" speed="16.76" departed="7" arrived="0" entered="14" left="19" laneChangedFrom="0" laneChangedTo="0"/>
        <edge id="60" sampledSeconds="3837.09" traveltime="216.67" overlapTraveltime="217.56" density="0.67" occupancy="0.33" waitingTime="1.00" speed="26.37" departed="6" arrived="5" entered="14" left="11" laneChangedFrom="0" laneChangedTo="0"/>
        <edge id="61" sampledSeconds="1182.70" traveltime="242.32" overlapTraveltime="242.94" density="0.43" occupancy="0.21" waitingTime="0.00" speed="11.45" departed="4" arrived="0" entered="1" left="4" laneChangedFrom="0" laneChangedTo="0"/>
        <edge id="62" sampledSeconds="4060.24" traveltime="223.01" overlapTraveltime="223.82" density="2.05" occupancy="1.02" waitingTime="15.00" speed="8.89" departed="5" arrived="0" entered="15" left="17" laneChangedFrom="0" laneChangedTo="0"/>
        <edge id="63" sampledSeconds="1833.70" traveltime="217.98" overlapTraveltime="218.65" density="0.72" occupancy="0.36" waitingTime="0.00" speed="11.65" departed="5" arrived="0" entered="4" left="8" laneChangedFrom="0" laneChangedTo="0"/>
        <edge id="64" sampledSeconds="4983.44" traveltime="221.45" overlapTraveltime="222.01" density="2.51" occupancy="1.26" waitingTime="0.00" speed="8.96" departed="4" arrived="8" entered="23" left="8" laneChangedFrom="0" laneChangedTo="0"/>
        <edge id="65" sampledSeconds="3186.43" traveltime="126.66" overlapTraveltime="127.14" density="2.01" occupancy="1.00" waitingTime="0.00" speed="12.52" departed="11" arrived="0" entered="15" left="23" laneChangedFrom="0" laneChangedTo="0"/>
        <edge id="66" sampledSeconds="4392.33" traveltime="127.39" overlapTraveltime="127.77" density="2.45" occupancy="1.23" waitingTime="0.00" speed="14.05" departed="7" arrived="0" entered="30" left="30" laneChangedFrom="0" laneChangedTo="0"/>
        <edge id="67" sampledSeconds="1851.41" traveltime="71.36" overlapTraveltime="71.76" density="1.56" occupancy="0.78" waitingTime="0.00" speed="16.66" departed="8" arrived="0" entered="19" left="24" laneChangedFrom="0" laneChangedTo="0"/>
        <edge id="68" sampledSeconds="6819.38" traveltime="254.59" overlapTraveltime="255.14" density="2.68" occupancy="1.34" waitingTime="0.00" speed="9.98" departed="6" arrived="10" entered="27" left="8" laneChangedFrom="0" laneChangedTo="0"/>
        <edge id="69" sampledSeconds="1875.88" traveltime="60.22" overlapTraveltime="60.57" density="1.18" occupancy="0.59" waitingTime="0.00" speed="26.28" departed="8" arrived="0" entered="25" left="30" laneChangedFrom="0" laneChangedTo="0"/>
        <edge id="7" sampledSeconds="3196.14" traveltime="95.10" overlapTraveltime="95.31" density="1.34" occupancy="0.67" waitingTime="0.00" speed="25.13" departed="5" arrived="0" entered="29" left="32" laneChangedFrom="0" laneChangedTo="0"/>
        <edge id="70" sampledSeconds="948.79" traveltime="174.39" overlapTraveltime="175.05" density="0.53" occupancy="0.26" waitingTime="0.00" speed="10.26" departed="6" arrived="0" entered="0" left="5" laneChangedFrom="0" laneChangedTo="0"/>
        <edge id="71" sampledSeconds="945.34" traveltime="129.78" overlapTraveltime="130.45" density="0.79" occupancy="0.40" waitingTime="0.00" speed="9.16" departed="7" arrived="0" entered="1" left="7" laneChangedFrom="0" laneChangedTo="0"/>
        <edge id="72" sampledSeconds="2466.49" traveltime="173.74" overlapTraveltime="174.62" density="1.38" occupancy="0.69" waitingTime="11.00" speed="10.28" departed="6" arrived="0" entered="11" left="11" laneChangedFrom="0" laneChangedTo="0"/>
        <edge id="73" sampledSeconds="1655.66" traveltime="154.60" overlapTraveltime="155.39" density="1.04" occupancy="0.52" waitingTime="1.00" speed="10.27" departed="7" arrived="0" entered="6" left="9" laneChangedFrom="0" laneChangedTo="0"/>
        <edge id="74" sampledSeconds="4508.83" traveltime="100.55" overlapTraveltime="100.88" density="2.83" occupancy="1.42" waitingTime="0.00" speed="15.83" departed="5" arrived="18" entered="48" left="21" laneChangedFrom="0" laneChangedTo="0"/>
        <edge id="75" sampledSeconds="3000.60" traveltime="129.36" overlapTraveltime="130.15" density="1.68" occupancy="0.84" waitingTime="4.00" speed="13.80" departed="8" arrived="0" entered="17" left="21" laneChangedFrom="0" laneChangedTo="0"/>
        <edge id="76" sampledSeconds="1270.51" traveltime="155.06" overlapTraveltime="155.73" density="0.80" occupancy="0.40" waitingTime="0.00" speed="10.25" departed="8" arrived="0" entered="1" left="8" laneChangedFrom="0" laneChangedTo="0"/>
        <edge id="8" sampledSeconds="3657.87" traveltime="95.70" overlapTraveltime="96.44" density="2.30" occupancy="1.15" waitingTime="1.00" speed="16.54" departed="10" arrived="0" entered="28" left="37" laneChangedFrom="0" laneChangedTo="0"/>
        <edge id="9" sampledSeconds="2169.16" traveltime="85.05" overlapTraveltime="85.41" density="1.21" occupancy="0.61" waitingTime="0.00" speed="21.02" departed="6" arrived="0" entered="20" left="24" laneChangedFrom="0" laneChangedTo="0"/>
    </interval>
    <interval begin="1000.00" end="2000.00" id="2">
        <edge id="1" sampledSeconds="13437.53" traveltime="222.23" overlapTraveltime="222.49" density="2.49" occupancy="1.25" waitingTime="0.00" speed="24.26" departed="8" arrived="40" entered="56" left="17" laneChangedFrom="0" laneChangedTo="0"/>
        <edge id="10" sampledSeconds="2564.44" traveltime="231.74" overlapTraveltime="232.57" density="1.07" occupancy="0.54" waitingTime="1.00" speed="10.30" departed="11" arrived="0" entered="0" left="12" laneChangedFrom="0" laneChangedTo="0"/>
        <edge id="11" sampledSeconds="4009.65" traveltime="85.50" overlapTraveltime="85.99" density="2.24" occupancy="1.12" waitingTime="0.00" speed="20.88" departed="12" arrived="0" entered="35" left="44" laneChangedFrom="0" laneChangedTo="0"/>
        <edge id="12" sampledSeconds="6220.90" traveltime="126.33" overlapTraveltime="127.14" density="3.13" occupancy="1.56" waitingTime="6.00" speed="15.70" departed="4" arrived="0" entered="46" left="47" laneChangedFrom="0" laneChangedTo="0"/>
        <edge id="13" sampledSeconds="690.28" traveltime="132.73" overlapTraveltime="133.44" density="0.58" occupancy="0.29" waitingTime="0.00" speed="8.96" departed="6" arrived="0" entered="0" left="4" laneChangedFrom="0" laneChangedTo="0"/>
        <edge id="14" sampledSeconds="6985.02" traveltime="78.05" overlapTraveltime="78.35" density="5.02" occupancy="2.51" waitingTime="0.00" speed="17.83" departed="8" arrived="34" entered="81" left="53" laneChangedFrom="0" laneChangedTo="0"/>
        <edge id="15" sampledSeconds="3901.19" traveltime="125.81" overlapTraveltime="126.20" density="1.96" occupancy="0.98" waitingTime="0.00" speed="15.81" departed="7" arrived="0" entered="23" left="31" laneChangedFrom="0" laneChangedTo="0"/>
        <edge id="16" sampledSeconds="3189.75" traveltime="63.75" overlapTraveltime="64.50" density="2.68" occupancy="1.34" waitingTime="0.00" speed="18.54" departed="3" arrived="0" entered="46" left="50" laneChangedFrom="0" laneChangedTo="0"/>
        <edge id="17" sampledSeconds="3462.51" traveltime="130.83" overlapTraveltime="131.70" density="1.74" occupancy="0.87" waitingTime="12.00" speed="15.16" departed="8" arrived="0" entered="18" left="27" laneChangedFrom="0" laneChangedTo="0"/>
        <edge id="18" sampledSeconds="1805.58" traveltime="49.27" overlapTraveltime="49.91" density="1.51" occupancy="0.76" waitingTime="3.00" speed="23.99" departed="8" arrived="0" entered="30" left="35" laneChangedFrom="0" laneChangedTo="0"/>
        <edge id="19" sampledSeconds="5133.63" traveltime="63.26" overlapTraveltime="63.68" density="4.31" occupancy="2.16" waitingTime="0.00" speed="18.77" departed="3" arrived="0" entered="77" left="82" laneChangedFrom="0" laneChangedTo="0"/>
        <edge id="2" sampledSeconds="658.09" traveltime="59.53" overlapTraveltime="59.91" density="0.47" occupancy="0.24" waitingTime="0.00" speed="23.32" departed="4" arrived="0" entered="7" left="11" laneChangedFrom="0" laneChangedTo="0"/>
        <edge id="20" sampledSeconds="9242.50" traveltime="128.62" overlapTraveltime="128.96" density="4.64" occupancy="2.32" waitingTime="0.00" speed="15.49" departed="12" arrived="41" entered="58" left="33" laneChangedFrom="0" laneChangedTo="0"/>
        <edge id="21" sampledSeconds="1916.57" traveltime="257.68" overlapTraveltime="258.43" density="0.96" occupancy="0.48" waitingTime="0.00" speed="7.72" departed="7" arrived="0" entered="0" left="7" laneChangedFrom="0" laneChangedTo="0"/>
        <edge id="22" sampledSeconds="5024.20" traveltime="119.59" overlapTraveltime="120.21" density="4.22" occupancy="2.11" waitingTime="2.00" speed="9.95" departed="14" arrived="0" entered="28" left="43" laneChangedFrom="0" laneChangedTo="0"/>
        <edge id="23" sampledSeconds="1662.72" traveltime="132.63" overlapTraveltime="133.51" density="1.40" occupancy="0.70" waitingTime="9.00" speed="8.95" departed="3" arrived="0" entered="9" left="13" laneChangedFrom="0" laneChangedTo="0"/>
        <edge id="24" sampledSeconds="3877.96" traveltime="259.53" overlapTraveltime="260.51" density="1.95" occupancy="0.97" waitingTime="25.00" speed="7.66" departed="11" arrived="0" entered="5" left="13" laneChangedFrom="0" laneChangedTo="0"/>
        <edge id="25" sampledSeconds="2877.99" traveltime="228.03" overlapTraveltime="229.13" density="2.42" occupancy="1.21" waitingTime="17.00" speed="5.22" departed="7" arrived="0" entered="5" left="14" laneChangedFrom="0" laneChangedTo="0"/>
        <edge id="26" sampledSeconds="1786.31" traveltime="226.52" overlapTraveltime="227.41" density="1.50" occupancy="0.75" waitingTime="0.00" speed="5.26" departed="8" arrived="0" entered="0" left="8" laneChangedFrom="0" laneChangedTo="0"/>
        <edge id="27" sampledSeconds="3867.30" traveltime="277.44" overlapTraveltime="278.17" density="2.16" occupancy="1.08" waitingTime="0.00" speed="6.45" departed="4" arrived="0" entered="12" left="13" laneChangedFrom="0" laneChangedTo="0"/>
        <edge id="28" sampledSeconds="8011.66" traveltime="345.45" overlapTraveltime="346.07" density="3.10" occupancy="1.55" waitingTime="0.00" speed="7.49" departed="6" arrived="0" entered="14" left="28" laneChangedFrom="0" laneChangedTo="0"/>
        <edge id="29" sampledSeconds="5655.55" traveltime="174.27" overlapTraveltime="175.16" density="2.85" occupancy="1.43" waitingTime="28.00" speed="11.34" departed="10" arrived="0" entered="26" left="30" laneChangedFrom="0" laneChangedTo="0"/>
        <edge id="3" sampledSeconds="13890.00" traveltime="221.91" overlapTraveltime="222.54" density="2.58" occupancy="1.29" waitingTime="4.00" speed="24.26" departed="7" arrived="38" entered="52" left="28" laneChangedFrom="0" laneChangedTo="0"/>
        <edge id="30" sampledSeconds="2983.36" traveltime="283.57" overlapTraveltime="284.59" density="1.29" occupancy="0.65" waitingTime="7.00" speed="8.14" departed="9" arrived="0" entered="0" left="12" laneChangedFrom="0" laneChangedTo="0"/>
        <edge id="31" sampledSeconds="3232.89" traveltime="230.62" overlapTraveltime="231.29" density="1.35" occupancy="0.68" waitingTime="1.00" speed="10.36" departed="9" arrived="0" entered="6" left="13" laneChangedFrom="0" laneChangedTo="0"/>
        <edge id="32" sampledSeconds="3140.46" traveltime="277.42" overlapTraveltime="278.13" density="1.75" occupancy="0.88" waitingTime="0.00" speed="6.46" departed="8" arrived="0" entered="5" left="11" laneChangedFrom="0" laneChangedTo="0"/>
        <edge id="33" sampledSeconds="3630.98" traveltime="114.23" overlapTraveltime="114.94" density="2.28" occupancy="1.14" waitingTime="0.00" speed="13.88" departed="3" arrived="0" entered="28" left="31" laneChangedFrom="0" laneChangedTo="0"/>
        <edge id="34" sampledSeconds="2079.09" traveltime="278.88" overlapTraveltime="279.50" density="0.80" occupancy="0.40" waitingTime="0.00" speed="9.29" departed="4" arrived="0" entered="5" left="7" laneChangedFrom="0" laneChangedTo="0"/>
        <edge id="35" sampledSeconds="4367.44" traveltime="93.43" overlapTraveltime="93.65" density="1.83" occupancy="0.91" waitingTime="0.00" speed="25.58" departed="5" arrived="0" entered="39" left="48" laneChangedFrom="0" laneChangedTo="0"/>
        <edge id="36" sampledSeconds="1264.17" traveltime="115.31" overlapTraveltime="115.87" density="0.79" occupancy="0.40" waitingTime="0.00" speed="13.77" departed="9" arrived="0" entered="3" left="9" laneChangedFrom="0" laneChangedTo="0"/>
        <edge id="37" sampledSeconds="13015.88" traveltime="188.76" overlapTraveltime="188.97" density="2.41" occupancy="1.21" waitingTime="0.00" speed="28.56" departed="5" arrived="46" entered="63" left="24" laneChangedFrom="0" laneChangedTo="0"/>
        <edge id="38" sampledSeconds="8986.97" traveltime="189.04" overlapTraveltime="189.47" density="1.67" occupancy="0.83" waitingTime="1.00" speed="28.49" departed="3" arrived="0" entered="45" left="46" laneChangedFrom="0" laneChangedTo="0"/>
        <edge id="39" sampledSeconds="3273.62" traveltime="100.98" overlapTraveltime="101.92" density="2.06" occupancy="1.03" waitingTime="6.00" speed="15.67" departed="5" arrived="0" entered="27" left="32" laneChangedFrom="0" laneChangedTo="0"/>
        <edge id="4" sampledSeconds="1751.45" traveltime="78.77" overlapTraveltime="79.11" density="1.26" occupancy="0.63" waitingTime="0.00" speed="17.66" departed="5" arrived="0" entered="18" left="21" laneChangedFrom="0" laneChangedTo="0"/>
        <edge id="40" sampledSeconds="2761.57" traveltime="278.79" overlapTraveltime="279.46" density="1.07" occupancy="0.53" waitingTime="0.00" speed="9.29" departed="5" arrived="0" entered="6" left="10" laneChangedFrom="0" laneChangedTo="0"/>
        <edge id="41" sampledSeconds="5010.65" traveltime="198.12" overlapTraveltime="198.91" density="2.80" occupancy="1.40" waitingTime="12.00" speed="9.03" departed="10" arrived="0" entered="14" left="24" laneChangedFrom="0" laneChangedTo="0"/>
        <edge id="42" sampledSeconds="1513.31" traveltime="129.55" overlapTraveltime="130.32" density="1.27" occupancy="0.64" waitingTime="0.00" speed="9.17" departed="9" arrived="0" entered="1" left="12" laneChangedFrom="0" laneChangedTo="0"/>
        <edge id="43" sampledSeconds="2701.28" traveltime="346.30" overlapTraveltime="346.99" density="1.04" occupancy="0.52" waitingTime="0.00" speed="7.47" departed="8" arrived="0" entered="0" left="8" laneChangedFrom="0" laneChangedTo="0"/>
        <edge id="44" sampledSeconds="1467.80" traveltime="198.18" overlapTraveltime="198.85" density="0.82" occupancy="0.41" waitingTime="0.00" speed="9.03" departed="6" arrived="0" entered="0" left="7" laneChangedFrom="0" laneChangedTo="0"/>
        <edge id="45" sampledSeconds="6922.77" traveltime="127.85" overlapTraveltime="128.24" density="3.48" occupancy="1.74" waitingTime="0.00" speed="15.56" departed="3" arrived="0" entered="52" left="54" laneChangedFrom="0" laneChangedTo="0"/>