<?xml version="1.0" encoding="UTF-8"?>

<!-- generated on 02/12/18 15:58:02 by SUMO Version 0.30.0
<?xml version="1.0" encoding="UTF-8"?>

<configuration xmlns:xsi="http://www.w3.org/2001/XMLSchema-instance" xsi:noNamespaceSchemaLocation="http://sumo.dlr.de/xsd/sumoConfiguration.xsd">

    <input>
        <net-file value="C:/Users/Shekar/Desktop/laptop/sumo_sim/sioux_falls/config/../network/sf_net.net.xml"/>
        <route-files value="C:/Users/Shekar/Desktop/laptop/sumo_sim/sioux_falls/config/../trips/trip.xml"/>
        <additional-files value="C:/Users/Shekar/Desktop/laptop/sumo_sim/sioux_falls/config/additional_61__0_1000.xml"/>
    </input>

    <output>
        <summary-output value="C:/Users/Shekar/Desktop/laptop/sumo_sim/sioux_falls/config/../output/summary_61__0_1000.xml"/>
    </output>

    <processing>
        <time-to-teleport value="300"/>
    </processing>

    <report>
        <log value="C:/Users/Shekar/Desktop/laptop/sumo_sim/sioux_falls/config/../output/report_61__0_1000.xml"/>
    </report>

</configuration>
-->

<meandata xmlns:xsi="http://www.w3.org/2001/XMLSchema-instance" xsi:noNamespaceSchemaLocation="http://sumo.dlr.de/xsd/meandata_file.xsd">
    <interval begin="0.00" end="1000.00" id="1">
        <edge id="1" sampledSeconds="5431.80" traveltime="222.27" overlapTraveltime="222.54" density="1.01" occupancy="0.50" waitingTime="0.00" speed="24.26" departed="6" arrived="10" entered="24" left="8" laneChangedFrom="0" laneChangedTo="0"/>
        <edge id="10" sampledSeconds="1644.16" traveltime="231.43" overlapTraveltime="232.07" density="0.69" occupancy="0.34" waitingTime="0.00" speed="10.32" departed="8" arrived="0" entered="0" left="5" laneChangedFrom="0" laneChangedTo="0"/>
        <edge id="11" sampledSeconds="2225.07" traveltime="84.68" overlapTraveltime="85.00" density="1.24" occupancy="0.62" waitingTime="0.00" speed="21.12" departed="4" arrived="0" entered="23" left="26" laneChangedFrom="0" laneChangedTo="0"/>
        <edge id="12" sampledSeconds="4439.46" traveltime="126.71" overlapTraveltime="127.43" density="2.23" occupancy="1.12" waitingTime="7.00" speed="15.66" departed="5" arrived="0" entered="31" left="34" laneChangedFrom="0" laneChangedTo="0"/>
        <edge id="13" sampledSeconds="1066.21" traveltime="133.12" overlapTraveltime="133.85" density="0.90" occupancy="0.45" waitingTime="0.00" speed="8.93" departed="8" arrived="0" entered="0" left="8" laneChangedFrom="0" laneChangedTo="0"/>
        <edge id="14" sampledSeconds="4328.30" traveltime="78.11" overlapTraveltime="78.39" density="3.11" occupancy="1.55" waitingTime="0.00" speed="17.82" departed="5" arrived="18" entered="56" left="32" laneChangedFrom="0" laneChangedTo="0"/>
        <edge id="15" sampledSeconds="2902.96" traveltime="126.51" overlapTraveltime="126.92" density="1.46" occupancy="0.73" waitingTime="0.00" speed="15.72" departed="10" arrived="0" entered="15" left="21" laneChangedFrom="0" laneChangedTo="0"/>
        <edge id="16" sampledSeconds="2495.64" traveltime="63.82" overlapTraveltime="64.45" density="2.10" occupancy="1.05" waitingTime="0.00" speed="18.55" departed="5" arrived="0" entered="35" left="37" laneChangedFrom="0" laneChangedTo="0"/>
        <edge id="17" sampledSeconds="3326.16" traveltime="130.50" overlapTraveltime="131.18" density="1.67" occupancy="0.83" waitingTime="0.00" speed="15.22" departed="11" arrived="0" entered="17" left="24" laneChangedFrom="0" laneChangedTo="0"/>
        <edge id="18" sampledSeconds="1143.32" traveltime="48.75" overlapTraveltime="49.75" density="0.96" occupancy="0.48" waitingTime="10.00" speed="24.06" departed="4" arrived="0" entered="19" left="23" laneChangedFrom="0" laneChangedTo="0"/>
        <edge id="19" sampledSeconds="3725.13" traveltime="63.71" overlapTraveltime="64.15" density="3.13" occupancy="1.56" waitingTime="2.00" speed="18.64" departed="10" arrived="0" entered="50" left="55" laneChangedFrom="0" laneChangedTo="0"/>
        <edge id="2" sampledSeconds="741.15" traveltime="61.02" overlapTraveltime="61.89" density="0.53" occupancy="0.27" waitingTime="1.00" speed="22.57" departed="7" arrived="0" entered="5" left="12" laneChangedFrom="0" laneChangedTo="0"/>
        <edge id="20" sampledSeconds="5062.01" traveltime="129.46" overlapTraveltime="129.88" density="2.54" occupancy="1.27" waitingTime="2.00" speed="15.38" departed="9" arrived="15" entered="35" left="20" laneChangedFrom="0" laneChangedTo="0"/>
        <edge id="21" sampledSeconds="909.99" traveltime="257.66" overlapTraveltime="258.42" density="0.46" occupancy="0.23" waitingTime="0.00" speed="7.72" departed="4" arrived="0" entered="0" left="3" laneChangedFrom="0" laneChangedTo="0"/>
        <edge id="22" sampledSeconds="3090.94" traveltime="119.22" overlapTraveltime="119.72" density="2.60" occupancy="1.30" waitingTime="0.00" speed="9.99" departed="5" arrived="0" entered="23" left="24" laneChangedFrom="0" laneChangedTo="0"/>
        <edge id="23" sampledSeconds="1371.85" traveltime="132.11" overlapTraveltime="132.81" density="1.15" occupancy="0.58" waitingTime="0.00" speed="9.00" departed="6" arrived="0" entered="6" left="9" laneChangedFrom="0" laneChangedTo="0"/>
        <edge id="24" sampledSeconds="2583.68" traveltime="257.77" overlapTraveltime="258.76" density="1.30" occupancy="0.65" waitingTime="9.00" speed="7.71" departed="6" arrived="0" entered="4" left="10" laneChangedFrom="0" laneChangedTo="0"/>
        <edge id="25" sampledSeconds="2084.54" traveltime="226.14" overlapTraveltime="227.06" density="1.75" occupancy="0.88" waitingTime="0.00" speed="5.27" departed="8" arrived="0" entered="3" left="6" laneChangedFrom="0" laneChangedTo="0"/>
        <edge id="26" sampledSeconds="507.30" traveltime="226.66" overlapTraveltime="227.49" density="0.43" occupancy="0.21" waitingTime="0.00" speed="5.26" departed="2" arrived="0" entered="1" left="2" laneChangedFrom="0" laneChangedTo="0"/>
        <edge id="27" sampledSeconds="2179.77" traveltime="277.81" overlapTraveltime="278.57" density="1.22" occupancy="0.61" waitingTime="0.00" speed="6.45" departed="4" arrived="0" entered="6" left="6" laneChangedFrom="0" laneChangedTo="0"/>
        <edge id="28" sampledSeconds="4763.16" traveltime="346.64" overlapTraveltime="347.28" density="1.84" occupancy="0.92" waitingTime="0.00" speed="7.47" departed="11" arrived="0" entered="10" left="7" laneChangedFrom="0" laneChangedTo="0"/>
        <edge id="29" sampledSeconds="3207.70" traveltime="173.32" overlapTraveltime="174.05" density="1.62" occupancy="0.81" waitingTime="2.00" speed="11.42" departed="4" arrived="0" entered="15" left="17" laneChangedFrom="0" laneChangedTo="0"/>
        <edge id="3" sampledSeconds="6136.63" traveltime="221.57" overlapTraveltime="221.86" density="1.14" occupancy="0.57" waitingTime="0.00" speed="24.33" departed="3" arrived="10" entered="36" left="7" laneChangedFrom="0" laneChangedTo="0"/>
        <edge id="30" sampledSeconds="854.19" traveltime="282.56" overlapTraveltime="283.22" density="0.37" occupancy="0.18" waitingTime="0.00" speed="8.18" departed="6" arrived="0" entered="0" left="1" laneChangedFrom="0" laneChangedTo="0"/>
        <edge id="31" sampledSeconds="1023.80" traveltime="230.58" overlapTraveltime="231.17" density="0.43" occupancy="0.21" waitingTime="0.00" speed="10.36" departed="4" arrived="0" entered="1" left="4" laneChangedFrom="0" laneChangedTo="0"/>
        <edge id="32" sampledSeconds="2376.14" traveltime="278.33" overlapTraveltime="279.09" density="1.33" occupancy="0.66" waitingTime="0.00" speed="6.43" departed="6" arrived="0" entered="3" left="8" laneChangedFrom="0" laneChangedTo="0"/>
        <edge id="33" sampledSeconds="2422.07" traveltime="115.23" overlapTraveltime="116.04" density="1.52" occupancy="0.76" waitingTime="5.00" speed="13.75" departed="4" arrived="0" entered="20" left="19" laneChangedFrom="0" laneChangedTo="0"/>
        <edge id="34" sampledSeconds="1379.63" traveltime="279.25" overlapTraveltime="279.90" density="0.53" occupancy="0.27" waitingTime="0.00" speed="9.27" departed="6" arrived="0" entered="0" left="4" laneChangedFrom="0" laneChangedTo="0"/>
        <edge id="35" sampledSeconds="2526.07" traveltime="95.01" overlapTraveltime="95.28" density="1.06" occupancy="0.53" waitingTime="0.00" speed="25.14" departed="7" arrived="0" entered="24" left="23" laneChangedFrom="0" laneChangedTo="0"/>
        <edge id="36" sampledSeconds="465.97" traveltime="116.10" overlapTraveltime="116.86" density="0.29" occupancy="0.15" waitingTime="0.00" speed="13.65" departed="4" arrived="0" entered="0" left="4" laneChangedFrom="0" laneChangedTo="0"/>
        <edge id="37" sampledSeconds="8615.54" traveltime="188.86" overlapTraveltime="189.12" density="1.60" occupancy="0.80" waitingTime="0.00" speed="28.54" departed="4" arrived="18" entered="49" left="21" laneChangedFrom="0" laneChangedTo="0"/>
        <edge id="38" sampledSeconds="4453.07" traveltime="189.89" overlapTraveltime="190.39" density="0.83" occupancy="0.41" waitingTime="1.00" speed="28.35" departed="5" arrived="0" entered="21" left="22" laneChangedFrom="0" laneChangedTo="0"/>
        <edge id="39" sampledSeconds="2821.20" traveltime="101.34" overlapTraveltime="102.02" density="1.77" occupancy="0.89" waitingTime="0.00" speed="15.65" departed="8" arrived="0" entered="21" left="27" laneChangedFrom="0" laneChangedTo="0"/>
        <edge id="4" sampledSeconds="1383.34" traveltime="80.78" overlapTraveltime="81.60" density="0.99" occupancy="0.50" waitingTime="1.00" speed="17.12" departed="13" arrived="0" entered="4" left="17" laneChangedFrom="0" laneChangedTo="0"/>
        <edge id="40" sampledSeconds="2756.46" traveltime="278.89" overlapTraveltime="279.56" density="1.06" occupancy="0.53" waitingTime="0.00" speed="9.28" departed="6" arrived="0" entered="6" left="9" laneChangedFrom="0" laneChangedTo="0"/>
        <edge id="41" sampledSeconds="3123.94" traveltime="197.71" overlapTraveltime="198.52" density="1.74" occupancy="0.87" waitingTime="0.00" speed="9.04" departed="9" arrived="0" entered="9" left="14" laneChangedFrom="0" laneChangedTo="0"/>
        <edge id="42" sampledSeconds="696.88" traveltime="130.31" overlapTraveltime="131.00" density="0.59" occupancy="0.29" waitingTime="0.00" speed="9.13" departed="7" arrived="0" entered="0" left="5" laneChangedFrom="0" laneChangedTo="0"/>
        <edge id="43" sampledSeconds="3116.68" traveltime="347.79" overlapTraveltime="348.58" density="1.20" occupancy="0.60" waitingTime="2.00" speed="7.44" departed="11" arrived="0" entered="0" left="7" laneChangedFrom="0" laneChangedTo="0"/>
        <edge id="44" sampledSeconds="1045.31" traveltime="198.86" overlapTraveltime="199.74" density="0.58" occupancy="0.29" waitingTime="0.00" speed="8.99" departed="5" arrived="0" entered="2" left="5" laneChangedFrom="0" laneChangedTo="0"/>
        <edge id="45" sampledSeconds="4176.23" traveltime="127.99" overlapTraveltime="128.38" density="2.10" occupancy="1.05" waitingTime="0.00" speed="15.54" departed="4" arrived="0" entered="33" left="29" laneChangedFrom="0" laneChangedTo="0"/>
        <edge id="46" sampledSeconds="2433.07" traveltime="71.48" overlapTraveltime="71.99" density="2.04" occupancy="1.02" waitingTime="0.00" speed="16.61" departed="5" arrived="0" entered="33" left="29" laneChangedFrom="0" laneChangedTo="0"/>
        <edge id="47" sampledSeconds="4859.88" traveltime="119.08" overlapTraveltime="119.58" density="4.08" occupancy="2.04" waitingTime="0.00" speed="10.00" departed="5" arrived="0" entered="38" left="37" laneChangedFrom="0" laneChangedTo="0"/>
        <edge id="48" sampledSeconds="1838.51" traveltime="173.77" overlapTraveltime="175.05" density="0.93" occupancy="0.46" waitingTime="0.00" speed="11.35" departed="9" arrived="0" entered="3" left="9" laneChangedFrom="0" laneChangedTo="0"/>
        <edge id="49" sampledSeconds="1758.44" traveltime="41.03" overlapTraveltime="41.40" density="1.48" occupancy="0.74" waitingTime="0.00" speed="28.82" departed="10" arrived="0" entered="33" left="42" laneChangedFrom="0" laneChangedTo="0"/>
        <edge id="5" sampledSeconds="1987.05" traveltime="58.55" overlapTraveltime="58.81" density="1.43" occupancy="0.71" waitingTime="0.00" speed="23.76" departed="6" arrived="11" entered="29" left="22" laneChangedFrom="0" laneChangedTo="0"/>
        <edge id="50" sampledSeconds="4073.52" traveltime="159.58" overlapTraveltime="160.38" density="2.05" occupancy="1.02" waitingTime="7.00" speed="12.43" departed="9" arrived="0" entered="17" left="25" laneChangedFrom="0" laneChangedTo="0"/>
        <edge id="51" sampledSeconds="614.91" traveltime="282.53" overlapTraveltime="283.17" density="0.27" occupancy="0.13" waitingTime="0.00" speed="8.18" departed="3" arrived="0" entered="0" left="2" laneChangedFrom="0" laneChangedTo="0"/>
        <edge id="52" sampledSeconds="1796.64" traveltime="40.71" overlapTraveltime="41.19" density="1.51" occupancy="0.76" waitingTime="0.00" speed="28.97" departed="10" arrived="0" entered="36" left="41" laneChangedFrom="0" laneChangedTo="0"/>
        <edge id="53" sampledSeconds="5113.90" traveltime="110.99" overlapTraveltime="111.54" density="3.67" occupancy="1.84" waitingTime="0.00" speed="12.52" departed="11" arrived="0" entered="39" left="39" laneChangedFrom="0" laneChangedTo="0"/>
        <edge id="54" sampledSeconds="1659.96" traveltime="48.69" overlapTraveltime="48.95" density="1.39" occupancy="0.70" waitingTime="0.00" speed="24.45" departed="4" arrived="17" entered="30" left="16" laneChangedFrom="0" laneChangedTo="0"/>
        <edge id="55" sampledSeconds="1582.76" traveltime="161.45" overlapTraveltime="162.34" density="0.80" occupancy="0.40" waitingTime="4.00" speed="12.28" departed="10" arrived="0" entered="1" left="9" laneChangedFrom="0" laneChangedTo="0"/>
        <edge id="56" sampledSeconds="7010.25" traveltime="215.38" overlapTraveltime="215.68" density="1.22" occupancy="0.61" waitingTime="0.00" speed="26.60" departed="9" arrived="9" entered="33" left="15" laneChangedFrom="0" laneChangedTo="0"/>
        <edge id="57" sampledSeconds="2930.24" traveltime="129.57" overlapTraveltime="130.40" density="1.47" occupancy="0.74" waitingTime="1.00" speed="15.30" departed="4" arrived="0" entered="20" left="20" laneChangedFrom="0" laneChangedTo="0"/>
        <edge id="58" sampledSeconds="3642.03" traveltime="110.51" overlapTraveltime="110.92" density="2.62" occupancy="1.31" waitingTime="0.00" speed="12.59" departed="7" arrived="0" entered="27" left="32" laneChangedFrom="0" laneChangedTo="0"/>
        <edge id="59" sampledSeconds="5008.97" traveltime="240.71" overlapTraveltime="241.20" density="1.80" occupancy="0.90" waitingTime="0.00" speed="11.53" departed="5" arrived="10" entered="24" left="3" laneChangedFrom="0" laneChangedTo="0"/>
        <edge id="6" sampledSeconds="1831.05" traveltime="94.86" overlapTraveltime="95.55" density="1.15" occupancy="0.58" waitingTime="4.00" speed="16.70" departed="7" arrived="0" entered="14" left="19" laneChangedFrom="0" laneChangedTo="0"/>
        <edge id="60" sampledSeconds="3812.84" traveltime="216.04" overlapTraveltime="216.34" density="0.67" occupancy="0.33" waitingTime="0.00" speed="26.52" departed="6" arrived="0" entered="14" left="16" laneChangedFrom="0" laneChangedTo="0"/>
        <edge id="61" sampledSeconds="946.53" traveltime="243.63" overlapTraveltime="244.43" density="0.34" occupancy="0.17" waitingTime="1.00" speed="11.38" departed="4" arrived="0" entered="0" left="3" laneChangedFrom="0" laneChangedTo="0"/>
        <edge id="62" sampledSeconds="4064.65" traveltime="223.36" overlapTraveltime="224.19" density="2.05" occupancy="1.02" waitingTime="12.00" speed="8.87" departed="5" arrived="0" entered="15" left="17" laneChangedFrom="0" laneChangedTo="0"/>
        <edge id="63" sampledSeconds="2048.08" traveltime="217.69" overlapTraveltime="218.37" density="0.81" occupancy="0.40" waitingTime="0.00" speed="11.66" departed="5" arrived="0" entered="5" left="9" laneChangedFrom="0" laneChangedTo="0"/>
        <edge id="64" sampledSeconds="4978.49" traveltime="221.30" overlapTraveltime="221.86" density="2.51" occupancy="1.25" waitingTime="0.00" speed="8.97" departed="4" arrived="8" entered="23" left="8" laneChangedFrom="0" laneChangedTo="0"/>
        <edge id="65" sampledSeconds="3189.99" traveltime="126.82" overlapTraveltime="127.30" density="2.01" occupancy="1.01" waitingTime="0.00" speed="12.51" departed="11" arrived="0" entered="15" left="23" laneChangedFrom="0" laneChangedTo="0"/>
        <edge id="66" sampledSeconds="4394.19" traveltime="127.35" overlapTraveltime="127.73" density="2.45" occupancy="1.23" waitingTime="0.00" speed="14.06" departed="7" arrived="0" entered="30" left="30" laneChangedFrom="0" laneChangedTo="0"/>
        <edge id="67" sampledSeconds="2068.29" traveltime="71.46" overlapTraveltime="71.89" density="1.74" occupancy="0.87" waitingTime="0.00" speed="16.63" departed="8" arrived="0" entered="22" left="27" laneChangedFrom="0" laneChangedTo="0"/>
        <edge id="68" sampledSeconds="6703.33" traveltime="254.40" overlapTraveltime="254.97" density="2.64" occupancy="1.32" waitingTime="0.00" speed="9.99" departed="6" arrived="10" entered="26" left="8" laneChangedFrom="0" laneChangedTo="0"/>
        <edge id="69" sampledSeconds="1870.54" traveltime="60.21" overlapTraveltime="60.57" density="1.18" occupancy="0.59" waitingTime="0.00" speed="26.29" departed="8" arrived="0" entered="25" left="30" laneChangedFrom="0" laneChangedTo="0"/>
        <edge id="7" sampledSeconds="3197.29" traveltime="95.01" overlapTraveltime="95.22" density="1.34" occupancy="0.67" waitingTime="0.00" speed="25.16" departed="5" arrived="0" entered="29" left="32" laneChangedFrom="0" laneChangedTo="0"/>
        <edge id="70" sampledSeconds="949.39" traveltime="174.29" overlapTraveltime="175.03" density="0.53" occupancy="0.27" waitingTime="0.00" speed="10.26" departed="6" arrived="0" entered="0" left="5" laneChangedFrom="0" laneChangedTo="0"/>
        <edge id="71" sampledSeconds="812.02" traveltime="129.36" overlapTraveltime="129.99" density="0.68" occupancy="0.34" waitingTime="0.00" speed="9.20" departed="7" arrived="0" entered="0" left="6" laneChangedFrom="0" laneChangedTo="0"/>
        <edge id="72" sampledSeconds="2631.46" traveltime="173.33" overlapTraveltime="174.14" density="1.47" occupancy="0.73" waitingTime="8.00" speed="10.31" departed="6" arrived="0" entered="12" left="12" laneChangedFrom="0" laneChangedTo="0"/>
        <edge id="73" sampledSeconds="1655.02" traveltime="154.67" overlapTraveltime="155.52" density="1.04" occupancy="0.52" waitingTime="2.00" speed="10.26" departed="7" arrived="0" entered="6" left="9" laneChangedFrom="0" laneChangedTo="0"/>
        <edge id="74" sampledSeconds="4499.38" traveltime="100.53" overlapTraveltime="100.87" density="2.83" occupancy="1.41" waitingTime="0.00" speed="15.83" departed="5" arrived="18" entered="48" left="21" laneChangedFrom="0" laneChangedTo="0"/>
        <edge id="75" sampledSeconds="2998.29" traveltime="128.99" overlapTraveltime="129.78" density="1.67" occupancy="0.84" waitingTime="0.00" speed="13.84" departed="8" arrived="0" entered="17" left="21" laneChangedFrom="0" laneChangedTo="0"/>
        <edge id="76" sampledSeconds="1274.08" traveltime="155.10" overlapTraveltime="155.75" density="0.80" occupancy="0.40" waitingTime="0.00" speed="10.24" departed="8" arrived="0" entered="1" left="8" laneChangedFrom="0" laneChangedTo="0"/>
        <edge id="8" sampledSeconds="3683.34" traveltime="95.48" overlapTraveltime="96.18" density="2.32" occupancy="1.16" waitingTime="1.00" speed="16.59" departed="10" arrived="0" entered="29" left="37" laneChangedFrom="0" laneChangedTo="0"/>
        <edge id="9" sampledSeconds="2157.08" traveltime="85.04" overlapTraveltime="85.40" density="1.20" occupancy="0.60" waitingTime="0.00" speed="21.02" departed="6" arrived="0" entered="20" left="24" laneChangedFrom="0" laneChangedTo="0"/>
    </interval>
    <interval begin="1000.00" end="2000.00" id="2">
        <edge id="1" sampledSeconds="13404.59" traveltime="221.96" overlapTraveltime="222.21" density="2.49" occupancy="1.24" waitingTime="0.00" speed="24.29" departed="8" arrived="40" entered="56" left="17" laneChangedFrom="0" laneChangedTo="0"/>
        <edge id="10" sampledSeconds="2562.14" traveltime="231.92" overlapTraveltime="232.79" density="1.07" occupancy="0.54" waitingTime="1.00" speed="10.29" departed="11" arrived="0" entered="0" left="12" laneChangedFrom="0" laneChangedTo="0"/>
        <edge id="11" sampledSeconds="3973.88" traveltime="85.58" overlapTraveltime="85.99" density="2.22" occupancy="1.11" waitingTime="1.00" speed="20.88" departed="12" arrived="0" entered="36" left="43" laneChangedFrom="0" laneChangedTo="0"/>
        <edge id="12" sampledSeconds="6212.78" traveltime="126.32" overlapTraveltime="127.07" density="3.12" occupancy="1.56" waitingTime="3.00" speed="15.70" departed="4" arrived="0" entered="47" left="47" laneChangedFrom="0" laneChangedTo="0"/>
        <edge id="13" sampledSeconds="690.99" traveltime="132.84" overlapTraveltime="133.54" density="0.58" occupancy="0.29" waitingTime="0.00" speed="8.95" departed="6" arrived="0" entered="0" left="4" laneChangedFrom="0" laneChangedTo="0"/>
        <edge id="14" sampledSeconds="6869.28" traveltime="78.12" overlapTraveltime="78.41" density="4.93" occupancy="2.47" waitingTime="0.00" speed="17.82" departed="8" arrived="32" entered="80" left="54" laneChangedFrom="0" laneChangedTo="0"/>
        <edge id="15" sampledSeconds="3941.42" traveltime="125.97" overlapTraveltime="126.34" density="1.98" occupancy="0.99" waitingTime="0.00" speed="15.79" departed="7" arrived="0" entered="23" left="32" laneChangedFrom="0" laneChangedTo="0"/>
        <edge id="16" sampledSeconds="3194.31" traveltime="63.95" overlapTraveltime="64.68" density="2.68" occupancy="1.34" waitingTime="0.00" speed="18.48" departed="3" arrived="0" entered="46" left="50" laneChangedFrom="0" laneChangedTo="0"/>
        <edge id="17" sampledSeconds="3811.65" traveltime="130.78" overlapTraveltime="131.57" density="1.91" occupancy="0.96" waitingTime="16.00" speed="15.18" departed="8" arrived="0" entered="20" left="30" laneChangedFrom="0" laneChangedTo="0"/>
        <edge id="18" sampledSeconds="1909.69" traveltime="49.30" overlapTraveltime="49.87" density="1.60" occupancy="0.80" waitingTime="3.00" speed="24.00" departed="8" arrived="0" entered="32" left="37" laneChangedFrom="0" laneChangedTo="0"/>
        <edge id="19" sampledSeconds="5123.56" traveltime="63.16" overlapTraveltime="63.60" density="4.30" occupancy="2.15" waitingTime="0.00" speed="18.80" departed="3" arrived="0" entered="78" left="81" laneChangedFrom="0" laneChangedTo="0"/>
        <edge id="2" sampledSeconds="666.64" traveltime="59.52" overlapTraveltime="60.68" density="0.48" occupancy="0.24" waitingTime="7.00" speed="23.02" departed="4" arrived="0" entered="7" left="11" laneChangedFrom="0" laneChangedTo="0"/>
        <edge id="20" sampledSeconds="9316.81" traveltime="128.57" overlapTraveltime="128.91" density="4.68" occupancy="2.34" waitingTime="0.00" speed="15.49" departed="12" arrived="40" entered="58" left="35" laneChangedFrom="0" laneChangedTo="0"/>
        <edge id="21" sampledSeconds="1911.55" traveltime="257.06" overlapTraveltime="257.76" density="0.96" occupancy="0.48" waitingTime="0.00" speed="7.74" departed="7" arrived="0" entered="0" left="7" laneChangedFrom="0" laneChangedTo="0"/>
        <edge id="22" sampledSeconds="4960.45" traveltime="119.67" overlapTraveltime="120.22" density="4.17" occupancy="2.08" waitingTime="0.00" speed="9.94" departed="14" arrived="0" entered="28" left="42" laneChangedFrom="0" laneChangedTo="0"/>
        <edge id="23" sampledSeconds="1647.66" traveltime="131.66" overlapTraveltime="132.45" density="1.38" occupancy="0.69" waitingTime="2.00" speed="9.03" departed="3" arrived="0" entered="9" left="13" laneChangedFrom="0" laneChangedTo="0"/>
        <edge id="24" sampledSeconds="3876.71" traveltime="259.33" overlapTraveltime="260.35" density="1.95" occupancy="0.97" waitingTime="21.00" speed="7.66" departed="11" arrived="0" entered="5" left="13" laneChangedFrom="0" laneChangedTo="0"/>
        <edge id="25" sampledSeconds="2873.49" traveltime="227.88" overlapTraveltime="228.88" density="2.41" occupancy="1.21" waitingTime="16.00" speed="5.22" departed="7" arrived="0" entered="5" left="14" laneChangedFrom="0" laneChangedTo="0"/>
        <edge id="26" sampledSeconds="1791.08" traveltime="226.82" overlapTraveltime="227.69" density="1.50" occupancy="0.75" waitingTime="0.00" speed="5.25" departed="8" arrived="0" entered="0" left="8" laneChangedFrom="0" laneChangedTo="0"/>
        <edge id="27" sampledSeconds="3710.95" traveltime="277.18" overlapTraveltime="277.90" density="2.07" occupancy="1.04" waitingTime="0.00" speed="6.46" departed="4" arrived="0" entered="11" left="13" laneChangedFrom="0" laneChangedTo="0"/>
        <edge id="28" sampledSeconds="8001.93" traveltime="345.20" overlapTraveltime="345.82" density="3.09" occupancy="1.55" waitingTime="0.00" speed="7.50" departed="6" arrived="0" entered="14" left="28" laneChangedFrom="0" laneChangedTo="0"/>
        <edge id="29" sampledSeconds="5660.83" traveltime="174.56" overlapTraveltime="175.52" density="2.86" occupancy="1.43" waitingTime="33.00" speed="11.32" departed="10" arrived="0" entered="26" left="30" laneChangedFrom="0" laneChangedTo="0"/>
        <edge id="3" sampledSeconds="13667.88" traveltime="221.67" overlapTraveltime="222.29" density="2.53" occupancy="1.27" waitingTime="8.00" speed="24.29" departed="6" arrived="38" entered="52" left="28" laneChangedFrom="0" laneChangedTo="0"/>
        <edge id="30" sampledSeconds="2987.06" traveltime="284.23" overlapTraveltime="285.19" density="1.29" occupancy="0.65" waitingTime="11.00" speed="8.12" departed="9" arrived="0" entered="0" left="12" laneChangedFrom="0" laneChangedTo="0"/>
        <edge id="31" sampledSeconds="3233.61" traveltime="230.72" overlapTraveltime="231.41" density="1.35" occupancy="0.68" waitingTime="0.00" speed="10.35" departed="9" arrived="0" entered="6" left="13" laneChangedFrom="0" laneChangedTo="0"/>
        <edge id="32" sampledSeconds="3146.00" traveltime="277.91" overlapTraveltime="278.64" density="1.76" occupancy="0.88" waitingTime="0.00" speed="6.44" departed="8" arrived="0" entered="5" left="11" laneChangedFrom="0" laneChangedTo="0"/>
        <edge id="33" sampledSeconds="3652.11" traveltime="114.85" overlapTraveltime="115.57" density="2.30" occupancy="1.15" waitingTime="16.00" speed="13.81" departed="3" arrived="0" entered="28" left="31" laneChangedFrom="0" laneChangedTo="0"/>
        <edge id="34" sampledSeconds="1796.58" traveltime="278.49" overlapTraveltime="279.12" density="0.69" occupancy="0.35" waitingTime="0.00" speed="9.30" departed="4" arrived="0" entered="4" left="6" laneChangedFrom="0" laneChangedTo="0"/>
        <edge id="35" sampledSeconds="4451.10" traveltime="93.34" overlapTraveltime="93.56" density="1.86" occupancy="0.93" waitingTime="0.00" speed="25.60" departed="5" arrived="0" entered="40" left="49" laneChangedFrom="0" laneChangedTo="0"/>
        <edge id="36" sampledSeconds="1225.11" traveltime="115.53" overlapTraveltime="116.10" density="0.77" occupancy="0.39" waitingTime="0.00" speed="13.74" departed="9" arrived="0" entered="3" left="8" laneChangedFrom="0" laneChangedTo="0"/>
        <edge id="37" sampledSeconds="13149.68" traveltime="188.93" overlapTraveltime="189.14" density="2.44" occupancy="1.22" waitingTime="0.00" speed="28.53" departed="5" arrived="46" entered="63" left="25" laneChangedFrom="0" laneChangedTo="0"/>
        <edge id="38" sampledSeconds="9191.29" traveltime="189.02" overlapTraveltime="189.64" density="1.70" occupancy="0.85" waitingTime="6.00" speed="28.46" departed="3" arrived="0" entered="46" left="47" laneChangedFrom="0" laneChangedTo="0"/>
        <edge id="39" sampledSeconds="3350.63" traveltime="100.55" overlapTraveltime="101.20" density="2.10" occupancy="1.05" waitingTime="0.00" speed="15.78" departed="5" arrived="0" entered="28" left="33" laneChangedFrom="0" laneChangedTo="0"/>
        <edge id="4" sampledSeconds="1751.33" traveltime="78.70" overlapTraveltime="79.14" density="1.26" occupancy="0.63" waitingTime="0.00" speed="17.65" departed="5" arrived="0" entered="18" left="21" laneChangedFrom="0" laneChangedTo="0"/>
        <edge id="40" sampledSeconds="2756.07" traveltime="278.38" overlapTraveltime="279.06" density="1.06" occupancy="0.53" waitingTime="0.00" speed="9.30" departed="5" arrived="0" entered="6" left="10" laneChangedFrom="0" laneChangedTo="0"/>
        <edge id="41" sampledSeconds="4807.50" traveltime="197.77" overlapTraveltime="198.58" density="2.69" occupancy="1.34" waitingTime="7.00" speed="9.04" departed="10" arrived="0" entered="13" left="23" laneChangedFrom="0" laneChangedTo="0"/>
        <edge id="42" sampledSeconds="1509.91" traveltime="129.37" overlapTraveltime="130.03" density="1.27" occupancy="0.63" waitingTime="0.00" speed="9.19" departed="9" arrived="0" entered="1" left="12" laneChangedFrom="0" laneChangedTo="0"/>
        <edge id="43" sampledSeconds="2694.83" traveltime="346.54" overlapTraveltime="347.25" density="1.04" occupancy="0.52" waitingTime="0.00" speed="7.47" departed="8" arrived="0" entered="0" left="8" laneChangedFrom="0" laneChangedTo="0"/>
        <edge id="44" sampledSeconds="1464.96" traveltime="198.03" overlapTraveltime="198.64" density="0.82" occupancy="0.41" waitingTime="0.00" speed="9.04" departed="6" arrived="0" entered="0" left="7" laneChangedFrom="0" laneChangedTo="0"/>
        <edge id="45" sampledSeconds="6900.24" traveltime="127.85" overlapTraveltime="128.24" density="3.47" occupancy="1.73" waitingTime="0.00" speed="15.56" departed="3" arrived="0" entered="51" left="54" laneChangedFrom="0" laneChangedTo="0"/>