<?xml version="1.0" encoding="UTF-8"?>

<!-- generated on 02/12/18 15:43:09 by SUMO Version 0.30.0
<?xml version="1.0" encoding="UTF-8"?>

<configuration xmlns:xsi="http://www.w3.org/2001/XMLSchema-instance" xsi:noNamespaceSchemaLocation="http://sumo.dlr.de/xsd/sumoConfiguration.xsd">

    <input>
        <net-file value="C:/Users/Shekar/Desktop/laptop/sumo_sim/sioux_falls/config/../network/sf_net.net.xml"/>
        <route-files value="C:/Users/Shekar/Desktop/laptop/sumo_sim/sioux_falls/config/../trips/trip.xml"/>
        <additional-files value="C:/Users/Shekar/Desktop/laptop/sumo_sim/sioux_falls/config/additional_35__0_1000.xml"/>
    </input>

    <output>
        <summary-output value="C:/Users/Shekar/Desktop/laptop/sumo_sim/sioux_falls/config/../output/summary_35__0_1000.xml"/>
    </output>

    <processing>
        <time-to-teleport value="300"/>
    </processing>

    <report>
        <log value="C:/Users/Shekar/Desktop/laptop/sumo_sim/sioux_falls/config/../output/report_35__0_1000.xml"/>
    </report>

</configuration>
-->

<meandata xmlns:xsi="http://www.w3.org/2001/XMLSchema-instance" xsi:noNamespaceSchemaLocation="http://sumo.dlr.de/xsd/meandata_file.xsd">
    <interval begin="0.00" end="1000.00" id="1">
        <edge id="1" sampledSeconds="4289.14" traveltime="222.54" overlapTraveltime="222.76" density="0.80" occupancy="0.40" waitingTime="0.00" speed="24.24" departed="6" arrived="10" entered="17" left="4" laneChangedFrom="0" laneChangedTo="0"/>
        <edge id="10" sampledSeconds="1639.69" traveltime="231.11" overlapTraveltime="231.71" density="0.69" occupancy="0.34" waitingTime="0.00" speed="10.34" departed="8" arrived="0" entered="0" left="5" laneChangedFrom="0" laneChangedTo="0"/>
        <edge id="11" sampledSeconds="2228.87" traveltime="84.73" overlapTraveltime="85.04" density="1.24" occupancy="0.62" waitingTime="0.00" speed="21.11" departed="4" arrived="0" entered="23" left="26" laneChangedFrom="0" laneChangedTo="0"/>
        <edge id="12" sampledSeconds="4533.27" traveltime="126.72" overlapTraveltime="127.41" density="2.28" occupancy="1.14" waitingTime="6.00" speed="15.66" departed="5" arrived="0" entered="33" left="33" laneChangedFrom="0" laneChangedTo="0"/>
        <edge id="13" sampledSeconds="1061.29" traveltime="132.54" overlapTraveltime="133.23" density="0.89" occupancy="0.45" waitingTime="0.00" speed="8.97" departed="8" arrived="0" entered="0" left="8" laneChangedFrom="0" laneChangedTo="0"/>
        <edge id="14" sampledSeconds="4314.64" traveltime="78.09" overlapTraveltime="78.37" density="3.10" occupancy="1.55" waitingTime="0.00" speed="17.83" departed="5" arrived="18" entered="56" left="32" laneChangedFrom="0" laneChangedTo="0"/>
        <edge id="15" sampledSeconds="2908.38" traveltime="126.72" overlapTraveltime="127.14" density="1.46" occupancy="0.73" waitingTime="0.00" speed="15.70" departed="10" arrived="0" entered="15" left="21" laneChangedFrom="0" laneChangedTo="0"/>
        <edge id="16" sampledSeconds="2436.94" traveltime="63.87" overlapTraveltime="64.51" density="2.05" occupancy="1.02" waitingTime="0.00" speed="18.53" departed="5" arrived="0" entered="34" left="36" laneChangedFrom="0" laneChangedTo="0"/>
        <edge id="17" sampledSeconds="3329.12" traveltime="130.46" overlapTraveltime="131.15" density="1.67" occupancy="0.84" waitingTime="0.00" speed="15.23" departed="11" arrived="0" entered="17" left="24" laneChangedFrom="0" laneChangedTo="0"/>
        <edge id="18" sampledSeconds="1084.94" traveltime="48.89" overlapTraveltime="49.35" density="0.91" occupancy="0.46" waitingTime="0.00" speed="24.25" departed="4" arrived="0" entered="18" left="22" laneChangedFrom="0" laneChangedTo="0"/>
        <edge id="19" sampledSeconds="3724.66" traveltime="63.69" overlapTraveltime="64.12" density="3.13" occupancy="1.56" waitingTime="0.00" speed="18.64" departed="10" arrived="0" entered="50" left="55" laneChangedFrom="0" laneChangedTo="0"/>
        <edge id="2" sampledSeconds="738.73" traveltime="61.07" overlapTraveltime="61.69" density="0.53" occupancy="0.27" waitingTime="0.00" speed="22.64" departed="7" arrived="0" entered="5" left="12" laneChangedFrom="0" laneChangedTo="0"/>
        <edge id="20" sampledSeconds="4881.48" traveltime="129.81" overlapTraveltime="130.22" density="2.45" occupancy="1.23" waitingTime="8.00" speed="15.34" departed="9" arrived="15" entered="33" left="19" laneChangedFrom="0" laneChangedTo="0"/>
        <edge id="21" sampledSeconds="909.78" traveltime="257.73" overlapTraveltime="258.43" density="0.46" occupancy="0.23" waitingTime="0.00" speed="7.72" departed="4" arrived="0" entered="0" left="3" laneChangedFrom="0" laneChangedTo="0"/>
        <edge id="22" sampledSeconds="3218.15" traveltime="119.20" overlapTraveltime="119.69" density="2.70" occupancy="1.35" waitingTime="0.00" speed="9.99" departed="5" arrived="0" entered="24" left="25" laneChangedFrom="0" laneChangedTo="0"/>
        <edge id="23" sampledSeconds="1371.94" traveltime="132.13" overlapTraveltime="132.84" density="1.15" occupancy="0.58" waitingTime="1.00" speed="9.00" departed="6" arrived="0" entered="6" left="9" laneChangedFrom="0" laneChangedTo="0"/>
        <edge id="24" sampledSeconds="2592.96" traveltime="258.47" overlapTraveltime="259.69" density="1.30" occupancy="0.65" waitingTime="11.00" speed="7.68" departed="6" arrived="0" entered="4" left="10" laneChangedFrom="0" laneChangedTo="0"/>
        <edge id="25" sampledSeconds="2080.56" traveltime="226.06" overlapTraveltime="226.94" density="1.75" occupancy="0.87" waitingTime="0.00" speed="5.27" departed="8" arrived="0" entered="3" left="6" laneChangedFrom="0" laneChangedTo="0"/>
        <edge id="26" sampledSeconds="451.69" traveltime="225.93" overlapTraveltime="226.81" density="0.38" occupancy="0.19" waitingTime="0.00" speed="5.27" departed="2" arrived="0" entered="0" left="2" laneChangedFrom="0" laneChangedTo="0"/>
        <edge id="27" sampledSeconds="2237.57" traveltime="277.97" overlapTraveltime="278.77" density="1.25" occupancy="0.62" waitingTime="0.00" speed="6.44" departed="4" arrived="0" entered="7" left="6" laneChangedFrom="0" laneChangedTo="0"/>
        <edge id="28" sampledSeconds="4764.10" traveltime="346.55" overlapTraveltime="347.21" density="1.84" occupancy="0.92" waitingTime="0.00" speed="7.47" departed="11" arrived="0" entered="10" left="7" laneChangedFrom="0" laneChangedTo="0"/>
        <edge id="29" sampledSeconds="3568.61" traveltime="175.17" overlapTraveltime="176.14" density="1.80" occupancy="0.90" waitingTime="26.00" speed="11.28" departed="4" arrived="0" entered="17" left="18" laneChangedFrom="0" laneChangedTo="0"/>
        <edge id="3" sampledSeconds="5707.67" traveltime="221.57" overlapTraveltime="221.88" density="1.06" occupancy="0.53" waitingTime="0.00" speed="24.33" departed="3" arrived="10" entered="32" left="7" laneChangedFrom="0" laneChangedTo="0"/>
        <edge id="30" sampledSeconds="856.18" traveltime="284.27" overlapTraveltime="284.94" density="0.37" occupancy="0.19" waitingTime="0.00" speed="8.13" departed="6" arrived="0" entered="0" left="1" laneChangedFrom="0" laneChangedTo="0"/>
        <edge id="31" sampledSeconds="2912.56" traveltime="229.47" overlapTraveltime="230.08" density="1.22" occupancy="0.61" waitingTime="0.00" speed="10.41" departed="4" arrived="0" entered="14" left="9" laneChangedFrom="0" laneChangedTo="0"/>
        <edge id="32" sampledSeconds="2934.16" traveltime="278.59" overlapTraveltime="279.28" density="1.64" occupancy="0.82" waitingTime="0.00" speed="6.43" departed="6" arrived="0" entered="5" left="10" laneChangedFrom="0" laneChangedTo="0"/>
        <edge id="33" sampledSeconds="2424.11" traveltime="115.49" overlapTraveltime="116.35" density="1.52" occupancy="0.76" waitingTime="3.00" speed="13.71" departed="4" arrived="0" entered="20" left="19" laneChangedFrom="0" laneChangedTo="0"/>
        <edge id="34" sampledSeconds="1386.15" traveltime="280.03" overlapTraveltime="280.70" density="0.54" occupancy="0.27" waitingTime="0.00" speed="9.25" departed="6" arrived="0" entered="0" left="4" laneChangedFrom="0" laneChangedTo="0"/>
        <edge id="35" sampledSeconds="695.09" traveltime="99.13" overlapTraveltime="99.51" density="0.29" occupancy="0.15" waitingTime="0.00" speed="24.07" departed="7" arrived="0" entered="0" left="7" laneChangedFrom="0" laneChangedTo="0"/>
        <edge id="36" sampledSeconds="2676.09" traveltime="113.60" overlapTraveltime="114.36" density="1.68" occupancy="0.84" waitingTime="0.00" speed="13.95" departed="4" arrived="0" entered="25" left="19" laneChangedFrom="0" laneChangedTo="0"/>
        <edge id="37" sampledSeconds="8356.71" traveltime="188.91" overlapTraveltime="189.16" density="1.55" occupancy="0.77" waitingTime="0.00" speed="28.53" departed="4" arrived="18" entered="47" left="20" laneChangedFrom="0" laneChangedTo="0"/>
        <edge id="38" sampledSeconds="4471.21" traveltime="190.30" overlapTraveltime="191.16" density="0.83" occupancy="0.41" waitingTime="6.00" speed="28.23" departed="5" arrived="0" entered="21" left="22" laneChangedFrom="0" laneChangedTo="0"/>
        <edge id="39" sampledSeconds="2731.80" traveltime="101.34" overlapTraveltime="102.64" density="1.72" occupancy="0.86" waitingTime="14.00" speed="15.56" departed="8" arrived="0" entered="20" left="26" laneChangedFrom="0" laneChangedTo="0"/>
        <edge id="4" sampledSeconds="1376.79" traveltime="80.64" overlapTraveltime="81.21" density="0.99" occupancy="0.49" waitingTime="2.00" speed="17.20" departed="13" arrived="0" entered="4" left="17" laneChangedFrom="0" laneChangedTo="0"/>
        <edge id="40" sampledSeconds="2755.09" traveltime="278.80" overlapTraveltime="279.65" density="1.06" occupancy="0.53" waitingTime="2.00" speed="9.28" departed="6" arrived="0" entered="6" left="9" laneChangedFrom="0" laneChangedTo="0"/>
        <edge id="41" sampledSeconds="3320.66" traveltime="197.65" overlapTraveltime="198.37" density="1.85" occupancy="0.93" waitingTime="0.00" speed="9.05" departed="9" arrived="0" entered="10" left="15" laneChangedFrom="0" laneChangedTo="0"/>
        <edge id="42" sampledSeconds="692.99" traveltime="129.57" overlapTraveltime="130.18" density="0.58" occupancy="0.29" waitingTime="0.00" speed="9.18" departed="7" arrived="0" entered="0" left="5" laneChangedFrom="0" laneChangedTo="0"/>
        <edge id="43" sampledSeconds="3106.06" traveltime="347.81" overlapTraveltime="348.58" density="1.20" occupancy="0.60" waitingTime="0.00" speed="7.44" departed="11" arrived="0" entered="0" left="7" laneChangedFrom="0" laneChangedTo="0"/>
        <edge id="44" sampledSeconds="1042.21" traveltime="198.59" overlapTraveltime="199.29" density="0.58" occupancy="0.29" waitingTime="0.00" speed="9.01" departed="5" arrived="0" entered="2" left="5" laneChangedFrom="0" laneChangedTo="0"/>
        <edge id="45" sampledSeconds="4062.86" traveltime="128.07" overlapTraveltime="128.47" density="2.04" occupancy="1.02" waitingTime="0.00" speed="15.53" departed="4" arrived="0" entered="32" left="28" laneChangedFrom="0" laneChangedTo="0"/>
        <edge id="46" sampledSeconds="2474.96" traveltime="71.57" overlapTraveltime="72.06" density="2.08" occupancy="1.04" waitingTime="0.00" speed="16.59" departed="5" arrived="0" entered="34" left="29" laneChangedFrom="0" laneChangedTo="0"/>
        <edge id="47" sampledSeconds="4863.60" traveltime="119.19" overlapTraveltime="119.68" density="4.09" occupancy="2.04" waitingTime="0.00" speed="9.99" departed="5" arrived="0" entered="38" left="37" laneChangedFrom="0" laneChangedTo="0"/>
        <edge id="48" sampledSeconds="1827.79" traveltime="173.86" overlapTraveltime="175.35" density="0.92" occupancy="0.46" waitingTime="5.00" speed="11.33" departed="9" arrived="0" entered="3" left="9" laneChangedFrom="0" laneChangedTo="0"/>
        <edge id="49" sampledSeconds="1788.81" traveltime="40.79" overlapTraveltime="41.14" density="1.51" occupancy="0.75" waitingTime="0.00" speed="29.00" departed="10" arrived="0" entered="34" left="43" laneChangedFrom="0" laneChangedTo="0"/>
        <edge id="5" sampledSeconds="1380.46" traveltime="59.82" overlapTraveltime="60.08" density="0.99" occupancy="0.50" waitingTime="0.00" speed="23.25" departed="6" arrived="8" entered="17" left="15" laneChangedFrom="0" laneChangedTo="0"/>
        <edge id="50" sampledSeconds="4220.79" traveltime="159.25" overlapTraveltime="160.01" density="2.12" occupancy="1.06" waitingTime="4.00" speed="12.46" departed="9" arrived="0" entered="18" left="26" laneChangedFrom="0" laneChangedTo="0"/>
        <edge id="51" sampledSeconds="617.16" traveltime="283.46" overlapTraveltime="284.28" density="0.27" occupancy="0.13" waitingTime="0.00" speed="8.15" departed="3" arrived="0" entered="0" left="2" laneChangedFrom="0" laneChangedTo="0"/>
        <edge id="52" sampledSeconds="1796.79" traveltime="40.82" overlapTraveltime="41.43" density="1.51" occupancy="0.76" waitingTime="9.00" speed="28.79" departed="10" arrived="0" entered="36" left="41" laneChangedFrom="0" laneChangedTo="0"/>
        <edge id="53" sampledSeconds="5220.16" traveltime="110.79" overlapTraveltime="111.32" density="3.75" occupancy="1.88" waitingTime="1.00" speed="12.55" departed="11" arrived="0" entered="40" left="41" laneChangedFrom="0" laneChangedTo="0"/>
        <edge id="54" sampledSeconds="1652.46" traveltime="48.61" overlapTraveltime="48.90" density="1.39" occupancy="0.69" waitingTime="0.00" speed="24.48" departed="4" arrived="17" entered="30" left="16" laneChangedFrom="0" laneChangedTo="0"/>
        <edge id="55" sampledSeconds="1572.36" traveltime="160.75" overlapTraveltime="161.54" density="0.79" occupancy="0.40" waitingTime="2.00" speed="12.34" departed="10" arrived="0" entered="1" left="9" laneChangedFrom="0" laneChangedTo="0"/>
        <edge id="56" sampledSeconds="6921.45" traveltime="215.58" overlapTraveltime="215.87" density="1.21" occupancy="0.60" waitingTime="0.00" speed="26.58" departed="9" arrived="9" entered="33" left="15" laneChangedFrom="0" laneChangedTo="0"/>
        <edge id="57" sampledSeconds="3055.46" traveltime="129.31" overlapTraveltime="130.00" density="1.54" occupancy="0.77" waitingTime="1.00" speed="15.35" departed="4" arrived="0" entered="22" left="21" laneChangedFrom="0" laneChangedTo="0"/>
        <edge id="58" sampledSeconds="3640.61" traveltime="110.40" overlapTraveltime="110.80" density="2.62" occupancy="1.31" waitingTime="0.00" speed="12.61" departed="7" arrived="0" entered="27" left="32" laneChangedFrom="0" laneChangedTo="0"/>
        <edge id="59" sampledSeconds="5131.38" traveltime="240.85" overlapTraveltime="241.32" density="1.85" occupancy="0.92" waitingTime="0.00" speed="11.52" departed="5" arrived="11" entered="24" left="3" laneChangedFrom="0" laneChangedTo="0"/>
        <edge id="6" sampledSeconds="1447.62" traveltime="95.23" overlapTraveltime="95.55" density="0.91" occupancy="0.46" waitingTime="0.00" speed="16.70" departed="7" arrived="0" entered="10" left="15" laneChangedFrom="0" laneChangedTo="0"/>
        <edge id="60" sampledSeconds="3819.96" traveltime="216.09" overlapTraveltime="216.66" density="0.67" occupancy="0.33" waitingTime="1.00" speed="26.48" departed="6" arrived="0" entered="14" left="16" laneChangedFrom="0" laneChangedTo="0"/>
        <edge id="61" sampledSeconds="1186.76" traveltime="242.93" overlapTraveltime="243.66" density="0.43" occupancy="0.21" waitingTime="0.00" speed="11.41" departed="4" arrived="0" entered="1" left="4" laneChangedFrom="0" laneChangedTo="0"/>
        <edge id="62" sampledSeconds="4049.26" traveltime="222.38" overlapTraveltime="223.21" density="2.04" occupancy="1.02" waitingTime="10.00" speed="8.91" departed="5" arrived="0" entered="15" left="17" laneChangedFrom="0" laneChangedTo="0"/>
        <edge id="63" sampledSeconds="1835.90" traveltime="217.95" overlapTraveltime="218.70" density="0.72" occupancy="0.36" waitingTime="1.00" speed="11.65" departed="5" arrived="0" entered="4" left="8" laneChangedFrom="0" laneChangedTo="0"/>
        <edge id="64" sampledSeconds="4982.97" traveltime="221.55" overlapTraveltime="222.12" density="2.51" occupancy="1.26" waitingTime="0.00" speed="8.96" departed="4" arrived="8" entered="23" left="8" laneChangedFrom="0" laneChangedTo="0"/>
        <edge id="65" sampledSeconds="3076.30" traveltime="126.66" overlapTraveltime="127.12" density="1.94" occupancy="0.97" waitingTime="0.00" speed="12.52" departed="11" arrived="0" entered="14" left="23" laneChangedFrom="0" laneChangedTo="0"/>
        <edge id="66" sampledSeconds="4399.12" traveltime="127.38" overlapTraveltime="127.76" density="2.46" occupancy="1.23" waitingTime="0.00" speed="14.05" departed="7" arrived="0" entered="30" left="30" laneChangedFrom="0" laneChangedTo="0"/>
        <edge id="67" sampledSeconds="1928.86" traveltime="71.41" overlapTraveltime="71.87" density="1.62" occupancy="0.81" waitingTime="0.00" speed="16.64" departed="8" arrived="0" entered="20" left="25" laneChangedFrom="0" laneChangedTo="0"/>
        <edge id="68" sampledSeconds="6708.25" traveltime="254.56" overlapTraveltime="255.17" density="2.64" occupancy="1.32" waitingTime="1.00" speed="9.98" departed="6" arrived="10" entered="26" left="8" laneChangedFrom="0" laneChangedTo="0"/>
        <edge id="69" sampledSeconds="1876.75" traveltime="60.29" overlapTraveltime="60.67" density="1.18" occupancy="0.59" waitingTime="0.00" speed="26.24" departed="8" arrived="0" entered="25" left="30" laneChangedFrom="0" laneChangedTo="0"/>
        <edge id="7" sampledSeconds="3090.28" traveltime="94.85" overlapTraveltime="95.06" density="1.29" occupancy="0.65" waitingTime="0.00" speed="25.20" departed="5" arrived="0" entered="28" left="31" laneChangedFrom="0" laneChangedTo="0"/>
        <edge id="70" sampledSeconds="947.11" traveltime="174.12" overlapTraveltime="174.74" density="0.53" occupancy="0.26" waitingTime="0.00" speed="10.28" departed="6" arrived="0" entered="0" left="5" laneChangedFrom="0" laneChangedTo="0"/>
        <edge id="71" sampledSeconds="944.48" traveltime="129.60" overlapTraveltime="130.31" density="0.79" occupancy="0.40" waitingTime="0.00" speed="9.17" departed="7" arrived="0" entered="1" left="7" laneChangedFrom="0" laneChangedTo="0"/>
        <edge id="72" sampledSeconds="2454.00" traveltime="172.92" overlapTraveltime="173.73" density="1.37" occupancy="0.69" waitingTime="2.00" speed="10.34" departed="6" arrived="0" entered="11" left="11" laneChangedFrom="0" laneChangedTo="0"/>
        <edge id="73" sampledSeconds="1658.06" traveltime="154.89" overlapTraveltime="155.63" density="1.04" occupancy="0.52" waitingTime="4.00" speed="10.25" departed="7" arrived="0" entered="6" left="9" laneChangedFrom="0" laneChangedTo="0"/>
        <edge id="74" sampledSeconds="4503.01" traveltime="100.50" overlapTraveltime="100.83" density="2.83" occupancy="1.41" waitingTime="0.00" speed="15.84" departed="5" arrived="18" entered="48" left="21" laneChangedFrom="0" laneChangedTo="0"/>
        <edge id="75" sampledSeconds="2862.84" traveltime="129.33" overlapTraveltime="130.11" density="1.60" occupancy="0.80" waitingTime="4.00" speed="13.80" departed="8" arrived="0" entered="16" left="20" laneChangedFrom="0" laneChangedTo="0"/>
        <edge id="76" sampledSeconds="1273.92" traveltime="155.09" overlapTraveltime="155.75" density="0.80" occupancy="0.40" waitingTime="0.00" speed="10.24" departed="8" arrived="0" entered="1" left="8" laneChangedFrom="0" laneChangedTo="0"/>
        <edge id="8" sampledSeconds="3647.24" traveltime="95.29" overlapTraveltime="95.93" density="2.29" occupancy="1.15" waitingTime="0.00" speed="16.63" departed="10" arrived="0" entered="29" left="36" laneChangedFrom="0" laneChangedTo="0"/>
        <edge id="9" sampledSeconds="2306.13" traveltime="85.26" overlapTraveltime="85.69" density="1.29" occupancy="0.64" waitingTime="0.00" speed="20.95" departed="6" arrived="0" entered="21" left="26" laneChangedFrom="0" laneChangedTo="0"/>
    </interval>
    <interval begin="1000.00" end="2000.00" id="2">
        <edge id="1" sampledSeconds="13455.84" traveltime="222.05" overlapTraveltime="222.31" density="2.49" occupancy="1.25" waitingTime="0.00" speed="24.28" departed="8" arrived="40" entered="58" left="16" laneChangedFrom="0" laneChangedTo="0"/>
        <edge id="10" sampledSeconds="2563.72" traveltime="231.64" overlapTraveltime="232.47" density="1.07" occupancy="0.54" waitingTime="2.00" speed="10.30" departed="11" arrived="0" entered="0" left="12" laneChangedFrom="0" laneChangedTo="0"/>
        <edge id="11" sampledSeconds="3882.73" traveltime="85.37" overlapTraveltime="85.69" density="2.17" occupancy="1.08" waitingTime="0.00" speed="20.95" departed="12" arrived="0" entered="35" left="41" laneChangedFrom="0" laneChangedTo="0"/>
        <edge id="12" sampledSeconds="6374.78" traveltime="126.37" overlapTraveltime="127.12" density="3.20" occupancy="1.60" waitingTime="7.00" speed="15.70" departed="4" arrived="0" entered="47" left="50" laneChangedFrom="0" laneChangedTo="0"/>
        <edge id="13" sampledSeconds="692.70" traveltime="133.16" overlapTraveltime="133.83" density="0.58" occupancy="0.29" waitingTime="0.00" speed="8.93" departed="6" arrived="0" entered="0" left="4" laneChangedFrom="0" laneChangedTo="0"/>
        <edge id="14" sampledSeconds="7263.28" traveltime="78.02" overlapTraveltime="78.32" density="5.22" occupancy="2.61" waitingTime="0.00" speed="17.84" departed="8" arrived="33" entered="85" left="58" laneChangedFrom="0" laneChangedTo="0"/>
        <edge id="15" sampledSeconds="3939.08" traveltime="125.91" overlapTraveltime="126.28" density="1.98" occupancy="0.99" waitingTime="0.00" speed="15.80" departed="7" arrived="0" entered="23" left="32" laneChangedFrom="0" laneChangedTo="0"/>
        <edge id="16" sampledSeconds="3043.25" traveltime="63.62" overlapTraveltime="64.28" density="2.56" occupancy="1.28" waitingTime="0.00" speed="18.60" departed="3" arrived="0" entered="44" left="48" laneChangedFrom="0" laneChangedTo="0"/>
        <edge id="17" sampledSeconds="3797.32" traveltime="130.24" overlapTraveltime="131.05" density="1.91" occupancy="0.95" waitingTime="10.00" speed="15.24" departed="8" arrived="0" entered="20" left="30" laneChangedFrom="0" laneChangedTo="0"/>
        <edge id="18" sampledSeconds="1813.95" traveltime="49.42" overlapTraveltime="50.10" density="1.52" occupancy="0.76" waitingTime="3.00" speed="23.89" departed="8" arrived="0" entered="30" left="35" laneChangedFrom="0" laneChangedTo="0"/>
        <edge id="19" sampledSeconds="5122.65" traveltime="63.09" overlapTraveltime="63.53" density="4.30" occupancy="2.15" waitingTime="0.00" speed="18.82" departed="3" arrived="0" entered="78" left="81" laneChangedFrom="0" laneChangedTo="0"/>
        <edge id="2" sampledSeconds="661.59" traveltime="59.83" overlapTraveltime="60.22" density="0.48" occupancy="0.24" waitingTime="0.00" speed="23.20" departed="4" arrived="0" entered="7" left="11" laneChangedFrom="0" laneChangedTo="0"/>
        <edge id="20" sampledSeconds="9136.60" traveltime="128.59" overlapTraveltime="128.93" density="4.59" occupancy="2.29" waitingTime="0.00" speed="15.49" departed="12" arrived="40" entered="57" left="33" laneChangedFrom="0" laneChangedTo="0"/>
        <edge id="21" sampledSeconds="1913.88" traveltime="257.55" overlapTraveltime="258.30" density="0.96" occupancy="0.48" waitingTime="0.00" speed="7.73" departed="7" arrived="0" entered="0" left="7" laneChangedFrom="0" laneChangedTo="0"/>
        <edge id="22" sampledSeconds="4833.86" traveltime="119.68" overlapTraveltime="120.25" density="4.06" occupancy="2.03" waitingTime="0.00" speed="9.94" departed="14" arrived="0" entered="27" left="41" laneChangedFrom="0" laneChangedTo="0"/>
        <edge id="23" sampledSeconds="1519.48" traveltime="132.02" overlapTraveltime="132.83" density="1.28" occupancy="0.64" waitingTime="6.00" speed="9.00" departed="3" arrived="0" entered="8" left="12" laneChangedFrom="0" laneChangedTo="0"/>
        <edge id="24" sampledSeconds="3846.10" traveltime="257.17" overlapTraveltime="257.95" density="1.93" occupancy="0.97" waitingTime="3.00" speed="7.74" departed="11" arrived="0" entered="5" left="13" laneChangedFrom="0" laneChangedTo="0"/>
        <edge id="25" sampledSeconds="2879.37" traveltime="228.01" overlapTraveltime="228.96" density="2.42" occupancy="1.21" waitingTime="14.00" speed="5.22" departed="7" arrived="0" entered="5" left="14" laneChangedFrom="0" laneChangedTo="0"/>
        <edge id="26" sampledSeconds="1616.51" traveltime="226.59" overlapTraveltime="227.51" density="1.36" occupancy="0.68" waitingTime="0.00" speed="5.25" departed="8" arrived="0" entered="0" left="7" laneChangedFrom="0" laneChangedTo="0"/>
        <edge id="27" sampledSeconds="3932.77" traveltime="277.38" overlapTraveltime="278.12" density="2.20" occupancy="1.10" waitingTime="0.00" speed="6.46" departed="4" arrived="0" entered="11" left="14" laneChangedFrom="0" laneChangedTo="0"/>
        <edge id="28" sampledSeconds="8010.13" traveltime="345.53" overlapTraveltime="346.17" density="3.10" occupancy="1.55" waitingTime="0.00" speed="7.49" departed="6" arrived="0" entered="14" left="28" laneChangedFrom="0" laneChangedTo="0"/>
        <edge id="29" sampledSeconds="5915.33" traveltime="175.99" overlapTraveltime="176.93" density="2.98" occupancy="1.49" waitingTime="74.00" speed="11.23" departed="10" arrived="0" entered="27" left="32" laneChangedFrom="0" laneChangedTo="0"/>
        <edge id="3" sampledSeconds="14081.71" traveltime="221.54" overlapTraveltime="221.97" density="2.61" occupancy="1.31" waitingTime="0.00" speed="24.32" departed="7" arrived="38" entered="56" left="28" laneChangedFrom="0" laneChangedTo="0"/>
        <edge id="30" sampledSeconds="2976.14" traveltime="283.11" overlapTraveltime="283.97" density="1.29" occupancy="0.64" waitingTime="5.00" speed="8.16" departed="9" arrived="0" entered="0" left="12" laneChangedFrom="0" laneChangedTo="0"/>
        <edge id="31" sampledSeconds="7115.94" traveltime="230.62" overlapTraveltime="231.44" density="2.98" occupancy="1.49" waitingTime="12.00" speed="10.35" departed="9" arrived="0" entered="18" left="33" laneChangedFrom="0" laneChangedTo="0"/>
        <edge id="32" sampledSeconds="3423.75" traveltime="277.79" overlapTraveltime="278.50" density="1.91" occupancy="0.96" waitingTime="0.00" speed="6.45" departed="8" arrived="0" entered="6" left="12" laneChangedFrom="0" laneChangedTo="0"/>
        <edge id="33" sampledSeconds="3762.71" traveltime="114.47" overlapTraveltime="115.22" density="2.37" occupancy="1.18" waitingTime="3.00" speed="13.85" departed="3" arrived="0" entered="29" left="32" laneChangedFrom="0" laneChangedTo="0"/>
        <edge id="34" sampledSeconds="2076.60" traveltime="278.59" overlapTraveltime="279.22" density="0.80" occupancy="0.40" waitingTime="0.00" speed="9.30" departed="4" arrived="0" entered="5" left="7" laneChangedFrom="0" laneChangedTo="0"/>
        <edge id="35" sampledSeconds="3666.72" traveltime="93.52" overlapTraveltime="93.74" density="1.53" occupancy="0.77" waitingTime="0.00" speed="25.55" departed="5" arrived="0" entered="36" left="37" laneChangedFrom="0" laneChangedTo="0"/>
        <edge id="36" sampledSeconds="2323.36" traveltime="114.49" overlapTraveltime="115.31" density="1.46" occupancy="0.73" waitingTime="0.00" speed="13.84" departed="9" arrived="0" entered="7" left="22" laneChangedFrom="0" laneChangedTo="0"/>
        <edge id="37" sampledSeconds="13219.10" traveltime="188.83" overlapTraveltime="189.04" density="2.45" occupancy="1.23" waitingTime="0.00" speed="28.55" departed="5" arrived="47" entered="64" left="25" laneChangedFrom="0" laneChangedTo="0"/>
        <edge id="38" sampledSeconds="8992.38" traveltime="188.84" overlapTraveltime="189.53" density="1.67" occupancy="0.83" waitingTime="3.00" speed="28.48" departed="3" arrived="0" entered="45" left="46" laneChangedFrom="0" laneChangedTo="0"/>
        <edge id="39" sampledSeconds="3351.53" traveltime="100.41" overlapTraveltime="100.97" density="2.11" occupancy="1.05" waitingTime="0.00" speed="15.82" departed="5" arrived="0" entered="28" left="33" laneChangedFrom="0" laneChangedTo="0"/>
        <edge id="4" sampledSeconds="1750.89" traveltime="78.71" overlapTraveltime="79.05" density="1.26" occupancy="0.63" waitingTime="0.00" speed="17.67" departed="5" arrived="0" entered="18" left="22" laneChangedFrom="0" laneChangedTo="0"/>
        <edge id="40" sampledSeconds="2776.70" traveltime="279.94" overlapTraveltime="280.79" density="1.07" occupancy="0.54" waitingTime="4.00" speed="9.24" departed="5" arrived="0" entered="6" left="10" laneChangedFrom="0" laneChangedTo="0"/>
        <edge id="41" sampledSeconds="5000.68" traveltime="197.75" overlapTraveltime="198.54" density="2.79" occupancy="1.40" waitingTime="2.00" speed="9.04" departed="10" arrived="0" entered="14" left="24" laneChangedFrom="0" laneChangedTo="0"/>
        <edge id="42" sampledSeconds="1510.21" traveltime="129.38" overlapTraveltime="130.10" density="1.27" occupancy="0.63" waitingTime="0.00" speed="9.19" departed="9" arrived="0" entered="1" left="12" laneChangedFrom="0" laneChangedTo="0"/>
        <edge id="43" sampledSeconds="2714.55" traveltime="347.50" overlapTraveltime="348.22" density="1.05" occupancy="0.52" waitingTime="0.00" speed="7.45" departed="8" arrived="0" entered="0" left="8" laneChangedFrom="0" laneChangedTo="0"/>
        <edge id="44" sampledSeconds="1467.28" traveltime="198.07" overlapTraveltime="198.84" density="0.82" occupancy="0.41" waitingTime="0.00" speed="9.03" departed="6" arrived="0" entered="0" left="7" laneChangedFrom="0" laneChangedTo="0"/>
        <edge id="45" sampledSeconds="7018.82" traveltime="127.87" overlapTraveltime="128.26" density="3.53" occupancy="1.76" waitingTime="0.00" speed="15.56" departed="3" arrived="0" entered="52" left="55" laneChangedFrom="0" laneChangedTo="0"/>