<?xml version="1.0" encoding="UTF-8"?>

<!-- generated on 02/12/18 15:40:04 by SUMO Version 0.30.0
<?xml version="1.0" encoding="UTF-8"?>

<configuration xmlns:xsi="http://www.w3.org/2001/XMLSchema-instance" xsi:noNamespaceSchemaLocation="http://sumo.dlr.de/xsd/sumoConfiguration.xsd">

    <input>
        <net-file value="C:/Users/Shekar/Desktop/laptop/sumo_sim/sioux_falls/config/../network/sf_net.net.xml"/>
        <route-files value="C:/Users/Shekar/Desktop/laptop/sumo_sim/sioux_falls/config/../trips/trip.xml"/>
        <additional-files value="C:/Users/Shekar/Desktop/laptop/sumo_sim/sioux_falls/config/additional_2__0_1000.xml"/>
    </input>

    <output>
        <summary-output value="C:/Users/Shekar/Desktop/laptop/sumo_sim/sioux_falls/config/../output/summary_2__0_1000.xml"/>
    </output>

    <processing>
        <time-to-teleport value="300"/>
    </processing>

    <report>
        <log value="C:/Users/Shekar/Desktop/laptop/sumo_sim/sioux_falls/config/../output/report_2__0_1000.xml"/>
    </report>

</configuration>
-->

<meandata xmlns:xsi="http://www.w3.org/2001/XMLSchema-instance" xsi:noNamespaceSchemaLocation="http://sumo.dlr.de/xsd/meandata_file.xsd">
    <interval begin="0.00" end="1000.00" id="1">
        <edge id="1" sampledSeconds="6347.50" traveltime="222.34" overlapTraveltime="222.66" density="1.18" occupancy="0.59" waitingTime="4.00" speed="24.24" departed="6" arrived="10" entered="29" left="10" laneChangedFrom="0" laneChangedTo="0"/>
        <edge id="10" sampledSeconds="1647.53" traveltime="231.85" overlapTraveltime="232.47" density="0.69" occupancy="0.34" waitingTime="0.00" speed="10.30" departed="8" arrived="0" entered="0" left="5" laneChangedFrom="0" laneChangedTo="0"/>
        <edge id="11" sampledSeconds="2313.64" traveltime="84.75" overlapTraveltime="85.05" density="1.29" occupancy="0.65" waitingTime="0.00" speed="21.11" departed="4" arrived="0" entered="24" left="27" laneChangedFrom="0" laneChangedTo="0"/>
        <edge id="12" sampledSeconds="4438.65" traveltime="126.64" overlapTraveltime="127.32" density="2.23" occupancy="1.11" waitingTime="7.00" speed="15.67" departed="5" arrived="0" entered="31" left="34" laneChangedFrom="0" laneChangedTo="0"/>
        <edge id="13" sampledSeconds="1061.46" traveltime="132.53" overlapTraveltime="133.25" density="0.89" occupancy="0.45" waitingTime="0.00" speed="8.97" departed="8" arrived="0" entered="0" left="8" laneChangedFrom="0" laneChangedTo="0"/>
        <edge id="14" sampledSeconds="4313.08" traveltime="78.05" overlapTraveltime="78.33" density="3.10" occupancy="1.55" waitingTime="0.00" speed="17.84" departed="5" arrived="18" entered="56" left="32" laneChangedFrom="0" laneChangedTo="0"/>
        <edge id="15" sampledSeconds="3030.80" traveltime="126.68" overlapTraveltime="127.07" density="1.52" occupancy="0.76" waitingTime="0.00" speed="15.70" departed="10" arrived="0" entered="16" left="22" laneChangedFrom="0" laneChangedTo="0"/>
        <edge id="16" sampledSeconds="2559.77" traveltime="63.71" overlapTraveltime="64.37" density="2.15" occupancy="1.08" waitingTime="0.00" speed="18.57" departed="5" arrived="0" entered="36" left="38" laneChangedFrom="0" laneChangedTo="0"/>
        <edge id="17" sampledSeconds="3329.36" traveltime="130.32" overlapTraveltime="131.02" density="1.67" occupancy="0.84" waitingTime="0.00" speed="15.24" departed="11" arrived="0" entered="17" left="24" laneChangedFrom="0" laneChangedTo="0"/>
        <edge id="18" sampledSeconds="1140.17" traveltime="48.70" overlapTraveltime="49.61" density="0.96" occupancy="0.48" waitingTime="9.00" speed="24.13" departed="4" arrived="0" entered="19" left="23" laneChangedFrom="0" laneChangedTo="0"/>
        <edge id="19" sampledSeconds="3723.35" traveltime="63.77" overlapTraveltime="64.20" density="3.13" occupancy="1.56" waitingTime="0.00" speed="18.62" departed="10" arrived="0" entered="50" left="55" laneChangedFrom="0" laneChangedTo="0"/>
        <edge id="2" sampledSeconds="444.08" traveltime="62.91" overlapTraveltime="63.67" density="0.32" occupancy="0.16" waitingTime="0.00" speed="21.94" departed="7" arrived="0" entered="0" left="7" laneChangedFrom="0" laneChangedTo="0"/>
        <edge id="20" sampledSeconds="5074.56" traveltime="129.51" overlapTraveltime="129.91" density="2.55" occupancy="1.27" waitingTime="1.00" speed="15.37" departed="9" arrived="15" entered="35" left="20" laneChangedFrom="0" laneChangedTo="0"/>
        <edge id="21" sampledSeconds="907.28" traveltime="256.93" overlapTraveltime="257.61" density="0.46" occupancy="0.23" waitingTime="0.00" speed="7.75" departed="4" arrived="0" entered="0" left="3" laneChangedFrom="0" laneChangedTo="0"/>
        <edge id="22" sampledSeconds="3212.96" traveltime="119.30" overlapTraveltime="119.80" density="2.70" occupancy="1.35" waitingTime="0.00" speed="9.98" departed="5" arrived="0" entered="24" left="25" laneChangedFrom="0" laneChangedTo="0"/>
        <edge id="23" sampledSeconds="1370.66" traveltime="132.11" overlapTraveltime="132.86" density="1.15" occupancy="0.58" waitingTime="0.00" speed="9.00" departed="6" arrived="0" entered="6" left="9" laneChangedFrom="0" laneChangedTo="0"/>
        <edge id="24" sampledSeconds="2597.64" traveltime="259.03" overlapTraveltime="260.16" density="1.31" occupancy="0.65" waitingTime="15.00" speed="7.67" departed="6" arrived="0" entered="4" left="10" laneChangedFrom="0" laneChangedTo="0"/>
        <edge id="25" sampledSeconds="2089.70" traveltime="226.67" overlapTraveltime="227.55" density="1.76" occupancy="0.88" waitingTime="0.00" speed="5.25" departed="8" arrived="0" entered="3" left="6" laneChangedFrom="0" laneChangedTo="0"/>
        <edge id="26" sampledSeconds="455.82" traveltime="228.05" overlapTraveltime="228.89" density="0.38" occupancy="0.19" waitingTime="0.00" speed="5.22" departed="2" arrived="0" entered="0" left="2" laneChangedFrom="0" laneChangedTo="0"/>
        <edge id="27" sampledSeconds="2236.75" traveltime="277.47" overlapTraveltime="278.29" density="1.25" occupancy="0.62" waitingTime="0.00" speed="6.45" departed="4" arrived="0" entered="7" left="6" laneChangedFrom="0" laneChangedTo="0"/>
        <edge id="28" sampledSeconds="4760.24" traveltime="346.20" overlapTraveltime="346.85" density="1.84" occupancy="0.92" waitingTime="0.00" speed="7.48" departed="11" arrived="0" entered="10" left="7" laneChangedFrom="0" laneChangedTo="0"/>
        <edge id="29" sampledSeconds="3235.35" traveltime="174.60" overlapTraveltime="175.40" density="1.63" occupancy="0.82" waitingTime="22.00" speed="11.33" departed="4" arrived="0" entered="15" left="17" laneChangedFrom="0" laneChangedTo="0"/>
        <edge id="3" sampledSeconds="6151.87" traveltime="221.99" overlapTraveltime="222.49" density="1.14" occupancy="0.57" waitingTime="1.00" speed="24.26" departed="3" arrived="10" entered="36" left="7" laneChangedFrom="0" laneChangedTo="0"/>
        <edge id="30" sampledSeconds="857.07" traveltime="284.60" overlapTraveltime="285.26" density="0.37" occupancy="0.19" waitingTime="0.00" speed="8.12" departed="6" arrived="0" entered="0" left="1" laneChangedFrom="0" laneChangedTo="0"/>
        <edge id="31" sampledSeconds="1033.20" traveltime="232.26" overlapTraveltime="233.26" density="0.43" occupancy="0.22" waitingTime="3.00" speed="10.27" departed="4" arrived="0" entered="1" left="4" laneChangedFrom="0" laneChangedTo="0"/>
        <edge id="32" sampledSeconds="2371.85" traveltime="277.95" overlapTraveltime="278.68" density="1.32" occupancy="0.66" waitingTime="0.00" speed="6.44" departed="6" arrived="0" entered="3" left="8" laneChangedFrom="0" laneChangedTo="0"/>
        <edge id="33" sampledSeconds="2406.73" traveltime="114.70" overlapTraveltime="115.40" density="1.51" occupancy="0.76" waitingTime="0.00" speed="13.83" departed="4" arrived="0" entered="20" left="19" laneChangedFrom="0" laneChangedTo="0"/>
        <edge id="34" sampledSeconds="1385.03" traveltime="279.91" overlapTraveltime="280.58" density="0.53" occupancy="0.27" waitingTime="0.00" speed="9.25" departed="6" arrived="0" entered="0" left="4" laneChangedFrom="0" laneChangedTo="0"/>
        <edge id="35" sampledSeconds="2523.48" traveltime="94.88" overlapTraveltime="95.14" density="1.06" occupancy="0.53" waitingTime="0.00" speed="25.18" departed="7" arrived="0" entered="24" left="23" laneChangedFrom="0" laneChangedTo="0"/>
        <edge id="36" sampledSeconds="473.18" traveltime="116.03" overlapTraveltime="118.67" density="0.30" occupancy="0.15" waitingTime="6.00" speed="13.44" departed="4" arrived="0" entered="0" left="4" laneChangedFrom="0" laneChangedTo="0"/>
        <edge id="37" sampledSeconds="8220.44" traveltime="188.97" overlapTraveltime="189.21" density="1.52" occupancy="0.76" waitingTime="0.00" speed="28.52" departed="4" arrived="17" entered="46" left="20" laneChangedFrom="0" laneChangedTo="0"/>
        <edge id="38" sampledSeconds="4462.63" traveltime="190.05" overlapTraveltime="190.59" density="0.83" occupancy="0.41" waitingTime="1.00" speed="28.32" departed="5" arrived="0" entered="21" left="22" laneChangedFrom="0" laneChangedTo="0"/>
        <edge id="39" sampledSeconds="2723.94" traveltime="101.42" overlapTraveltime="102.38" density="1.71" occupancy="0.86" waitingTime="3.00" speed="15.60" departed="8" arrived="0" entered="20" left="26" laneChangedFrom="0" laneChangedTo="0"/>
        <edge id="4" sampledSeconds="1535.64" traveltime="80.41" overlapTraveltime="81.03" density="1.10" occupancy="0.55" waitingTime="2.00" speed="17.24" departed="13" arrived="0" entered="6" left="19" laneChangedFrom="0" laneChangedTo="0"/>
        <edge id="40" sampledSeconds="2754.65" traveltime="279.01" overlapTraveltime="279.67" density="1.06" occupancy="0.53" waitingTime="0.00" speed="9.28" departed="6" arrived="0" entered="6" left="9" laneChangedFrom="0" laneChangedTo="0"/>
        <edge id="41" sampledSeconds="3318.39" traveltime="197.70" overlapTraveltime="198.36" density="1.85" occupancy="0.93" waitingTime="0.00" speed="9.05" departed="9" arrived="0" entered="10" left="15" laneChangedFrom="0" laneChangedTo="0"/>
        <edge id="42" sampledSeconds="693.85" traveltime="130.03" overlapTraveltime="130.61" density="0.58" occupancy="0.29" waitingTime="0.00" speed="9.15" departed="7" arrived="0" entered="0" left="5" laneChangedFrom="0" laneChangedTo="0"/>
        <edge id="43" sampledSeconds="3105.34" traveltime="346.98" overlapTraveltime="347.83" density="1.20" occupancy="0.60" waitingTime="3.00" speed="7.45" departed="11" arrived="0" entered="0" left="7" laneChangedFrom="0" laneChangedTo="0"/>
        <edge id="44" sampledSeconds="1042.33" traveltime="198.66" overlapTraveltime="199.36" density="0.58" occupancy="0.29" waitingTime="0.00" speed="9.01" departed="5" arrived="0" entered="2" left="5" laneChangedFrom="0" laneChangedTo="0"/>
        <edge id="45" sampledSeconds="4059.34" traveltime="128.03" overlapTraveltime="128.42" density="2.04" occupancy="1.02" waitingTime="0.00" speed="15.54" departed="4" arrived="0" entered="32" left="28" laneChangedFrom="0" laneChangedTo="0"/>
        <edge id="46" sampledSeconds="2456.92" traveltime="71.62" overlapTraveltime="72.07" density="2.06" occupancy="1.03" waitingTime="0.00" speed="16.59" departed="5" arrived="0" entered="34" left="29" laneChangedFrom="0" laneChangedTo="0"/>
        <edge id="47" sampledSeconds="4847.23" traveltime="119.18" overlapTraveltime="119.68" density="4.07" occupancy="2.04" waitingTime="0.00" speed="9.99" departed="5" arrived="0" entered="38" left="37" laneChangedFrom="0" laneChangedTo="0"/>
        <edge id="48" sampledSeconds="1832.39" traveltime="173.78" overlapTraveltime="174.86" density="0.92" occupancy="0.46" waitingTime="3.00" speed="11.36" departed="9" arrived="0" entered="3" left="9" laneChangedFrom="0" laneChangedTo="0"/>
        <edge id="49" sampledSeconds="1787.96" traveltime="40.79" overlapTraveltime="41.14" density="1.51" occupancy="0.75" waitingTime="0.00" speed="29.00" departed="10" arrived="0" entered="34" left="43" laneChangedFrom="0" laneChangedTo="0"/>
        <edge id="5" sampledSeconds="1859.94" traveltime="58.30" overlapTraveltime="58.51" density="1.34" occupancy="0.67" waitingTime="0.00" speed="23.88" departed="6" arrived="9" entered="27" left="22" laneChangedFrom="0" laneChangedTo="0"/>
        <edge id="50" sampledSeconds="4054.92" traveltime="159.07" overlapTraveltime="159.78" density="2.04" occupancy="1.02" waitingTime="0.00" speed="12.48" departed="9" arrived="0" entered="17" left="25" laneChangedFrom="0" laneChangedTo="0"/>
        <edge id="51" sampledSeconds="615.05" traveltime="282.73" overlapTraveltime="283.41" density="0.27" occupancy="0.13" waitingTime="0.00" speed="8.17" departed="3" arrived="0" entered="0" left="2" laneChangedFrom="0" laneChangedTo="0"/>
        <edge id="52" sampledSeconds="1786.04" traveltime="40.41" overlapTraveltime="40.89" density="1.50" occupancy="0.75" waitingTime="1.00" speed="29.18" departed="10" arrived="0" entered="36" left="41" laneChangedFrom="0" laneChangedTo="0"/>
        <edge id="53" sampledSeconds="5235.44" traveltime="111.01" overlapTraveltime="111.56" density="3.76" occupancy="1.88" waitingTime="2.00" speed="12.52" departed="11" arrived="0" entered="40" left="41" laneChangedFrom="0" laneChangedTo="0"/>
        <edge id="54" sampledSeconds="1650.89" traveltime="48.63" overlapTraveltime="48.90" density="1.38" occupancy="0.69" waitingTime="0.00" speed="24.48" departed="4" arrived="17" entered="30" left="16" laneChangedFrom="0" laneChangedTo="0"/>
        <edge id="55" sampledSeconds="1578.36" traveltime="161.32" overlapTraveltime="162.26" density="0.79" occupancy="0.40" waitingTime="1.00" speed="12.29" departed="10" arrived="0" entered="1" left="9" laneChangedFrom="0" laneChangedTo="0"/>
        <edge id="56" sampledSeconds="7017.50" traveltime="215.67" overlapTraveltime="216.00" density="1.22" occupancy="0.61" waitingTime="1.00" speed="26.56" departed="9" arrived="9" entered="33" left="15" laneChangedFrom="0" laneChangedTo="0"/>
        <edge id="57" sampledSeconds="3055.34" traveltime="129.51" overlapTraveltime="130.23" density="1.53" occupancy="0.77" waitingTime="1.00" speed="15.32" departed="4" arrived="0" entered="21" left="22" laneChangedFrom="0" laneChangedTo="0"/>
        <edge id="58" sampledSeconds="3645.76" traveltime="110.50" overlapTraveltime="110.91" density="2.62" occupancy="1.31" waitingTime="0.00" speed="12.59" departed="7" arrived="0" entered="27" left="32" laneChangedFrom="0" laneChangedTo="0"/>
        <edge id="59" sampledSeconds="5211.70" traveltime="240.90" overlapTraveltime="241.42" density="1.88" occupancy="0.94" waitingTime="1.00" speed="11.52" departed="5" arrived="11" entered="24" left="3" laneChangedFrom="0" laneChangedTo="0"/>
        <edge id="6" sampledSeconds="1726.82" traveltime="94.73" overlapTraveltime="95.05" density="1.09" occupancy="0.54" waitingTime="0.00" speed="16.79" departed="7" arrived="0" entered="13" left="18" laneChangedFrom="0" laneChangedTo="0"/>
        <edge id="60" sampledSeconds="3816.33" traveltime="216.02" overlapTraveltime="216.45" density="0.67" occupancy="0.33" waitingTime="0.00" speed="26.51" departed="6" arrived="0" entered="14" left="16" laneChangedFrom="0" laneChangedTo="0"/>
        <edge id="61" sampledSeconds="1190.41" traveltime="243.45" overlapTraveltime="244.28" density="0.43" occupancy="0.21" waitingTime="2.00" speed="11.38" departed="4" arrived="0" entered="1" left="4" laneChangedFrom="0" laneChangedTo="0"/>
        <edge id="62" sampledSeconds="4063.12" traveltime="223.20" overlapTraveltime="224.06" density="2.05" occupancy="1.02" waitingTime="18.00" speed="8.88" departed="5" arrived="0" entered="15" left="17" laneChangedFrom="0" laneChangedTo="0"/>
        <edge id="63" sampledSeconds="1838.95" traveltime="217.84" overlapTraveltime="218.60" density="0.72" occupancy="0.36" waitingTime="1.00" speed="11.65" departed="5" arrived="0" entered="4" left="8" laneChangedFrom="0" laneChangedTo="0"/>
        <edge id="64" sampledSeconds="4973.99" traveltime="221.38" overlapTraveltime="221.94" density="2.51" occupancy="1.25" waitingTime="0.00" speed="8.96" departed="4" arrived="8" entered="23" left="8" laneChangedFrom="0" laneChangedTo="0"/>
        <edge id="65" sampledSeconds="3085.82" traveltime="126.76" overlapTraveltime="127.24" density="1.94" occupancy="0.97" waitingTime="0.00" speed="12.51" departed="11" arrived="0" entered="14" left="23" laneChangedFrom="0" laneChangedTo="0"/>
        <edge id="66" sampledSeconds="4397.84" traveltime="127.38" overlapTraveltime="127.76" density="2.46" occupancy="1.23" waitingTime="0.00" speed="14.05" departed="7" arrived="0" entered="30" left="30" laneChangedFrom="0" laneChangedTo="0"/>
        <edge id="67" sampledSeconds="1940.81" traveltime="71.30" overlapTraveltime="72.23" density="1.63" occupancy="0.82" waitingTime="11.00" speed="16.55" departed="8" arrived="0" entered="20" left="25" laneChangedFrom="0" laneChangedTo="0"/>
        <edge id="68" sampledSeconds="6699.82" traveltime="254.42" overlapTraveltime="255.01" density="2.64" occupancy="1.32" waitingTime="1.00" speed="9.99" departed="6" arrived="10" entered="26" left="8" laneChangedFrom="0" laneChangedTo="0"/>
        <edge id="69" sampledSeconds="1879.93" traveltime="60.34" overlapTraveltime="60.70" density="1.18" occupancy="0.59" waitingTime="0.00" speed="26.23" departed="8" arrived="0" entered="25" left="30" laneChangedFrom="0" laneChangedTo="0"/>
        <edge id="7" sampledSeconds="2912.89" traveltime="95.14" overlapTraveltime="95.35" density="1.22" occupancy="0.61" waitingTime="0.00" speed="25.12" departed="5" arrived="0" entered="26" left="29" laneChangedFrom="0" laneChangedTo="0"/>
        <edge id="70" sampledSeconds="950.15" traveltime="174.47" overlapTraveltime="175.17" density="0.53" occupancy="0.27" waitingTime="0.00" speed="10.25" departed="6" arrived="0" entered="0" left="5" laneChangedFrom="0" laneChangedTo="0"/>
        <edge id="71" sampledSeconds="945.19" traveltime="129.78" overlapTraveltime="130.45" density="0.79" occupancy="0.40" waitingTime="0.00" speed="9.16" departed="7" arrived="0" entered="1" left="7" laneChangedFrom="0" laneChangedTo="0"/>
        <edge id="72" sampledSeconds="2463.73" traveltime="173.66" overlapTraveltime="174.46" density="1.38" occupancy="0.69" waitingTime="10.00" speed="10.29" departed="6" arrived="0" entered="11" left="11" laneChangedFrom="0" laneChangedTo="0"/>
        <edge id="73" sampledSeconds="1657.65" traveltime="154.94" overlapTraveltime="155.68" density="1.04" occupancy="0.52" waitingTime="5.00" speed="10.25" departed="7" arrived="0" entered="6" left="9" laneChangedFrom="0" laneChangedTo="0"/>
        <edge id="74" sampledSeconds="4484.92" traveltime="100.56" overlapTraveltime="100.89" density="2.82" occupancy="1.41" waitingTime="0.00" speed="15.83" departed="5" arrived="18" entered="48" left="21" laneChangedFrom="0" laneChangedTo="0"/>
        <edge id="75" sampledSeconds="2866.30" traveltime="129.40" overlapTraveltime="130.16" density="1.60" occupancy="0.80" waitingTime="6.00" speed="13.79" departed="8" arrived="0" entered="16" left="20" laneChangedFrom="0" laneChangedTo="0"/>
        <edge id="76" sampledSeconds="1272.06" traveltime="154.92" overlapTraveltime="155.55" density="0.80" occupancy="0.40" waitingTime="0.00" speed="10.26" departed="8" arrived="0" entered="1" left="8" laneChangedFrom="0" laneChangedTo="0"/>
        <edge id="8" sampledSeconds="3612.23" traveltime="95.48" overlapTraveltime="96.16" density="2.27" occupancy="1.14" waitingTime="0.00" speed="16.59" departed="10" arrived="0" entered="29" left="36" laneChangedFrom="0" laneChangedTo="0"/>
        <edge id="9" sampledSeconds="2173.56" traveltime="85.19" overlapTraveltime="85.57" density="1.21" occupancy="0.61" waitingTime="0.00" speed="20.98" departed="6" arrived="0" entered="20" left="24" laneChangedFrom="0" laneChangedTo="0"/>
    </interval>
    <interval begin="1000.00" end="2000.00" id="2">
        <edge id="1" sampledSeconds="13620.57" traveltime="222.08" overlapTraveltime="222.33" density="2.53" occupancy="1.26" waitingTime="0.00" speed="24.28" departed="8" arrived="40" entered="56" left="20" laneChangedFrom="0" laneChangedTo="0"/>
        <edge id="10" sampledSeconds="2559.10" traveltime="231.64" overlapTraveltime="232.46" density="1.07" occupancy="0.54" waitingTime="1.00" speed="10.31" departed="11" arrived="0" entered="0" left="12" laneChangedFrom="0" laneChangedTo="0"/>
        <edge id="11" sampledSeconds="4034.01" traveltime="85.23" overlapTraveltime="85.56" density="2.25" occupancy="1.13" waitingTime="0.00" speed="20.99" departed="12" arrived="0" entered="37" left="43" laneChangedFrom="0" laneChangedTo="0"/>
        <edge id="12" sampledSeconds="6224.16" traveltime="126.51" overlapTraveltime="127.34" density="3.13" occupancy="1.56" waitingTime="8.00" speed="15.67" departed="4" arrived="0" entered="46" left="47" laneChangedFrom="0" laneChangedTo="0"/>
        <edge id="13" sampledSeconds="693.63" traveltime="133.24" overlapTraveltime="133.95" density="0.58" occupancy="0.29" waitingTime="0.00" speed="8.92" departed="6" arrived="0" entered="0" left="4" laneChangedFrom="0" laneChangedTo="0"/>
        <edge id="14" sampledSeconds="6879.71" traveltime="78.08" overlapTraveltime="78.38" density="4.94" occupancy="2.47" waitingTime="0.00" speed="17.82" departed="8" arrived="32" entered="80" left="53" laneChangedFrom="0" laneChangedTo="0"/>
        <edge id="15" sampledSeconds="4197.99" traveltime="126.01" overlapTraveltime="126.40" density="2.11" occupancy="1.05" waitingTime="0.00" speed="15.79" departed="7" arrived="0" entered="25" left="34" laneChangedFrom="0" laneChangedTo="0"/>
        <edge id="16" sampledSeconds="3251.77" traveltime="63.69" overlapTraveltime="64.51" density="2.73" occupancy="1.37" waitingTime="0.00" speed="18.53" departed="3" arrived="0" entered="47" left="51" laneChangedFrom="0" laneChangedTo="0"/>
        <edge id="17" sampledSeconds="3801.11" traveltime="130.57" overlapTraveltime="131.42" density="1.91" occupancy="0.95" waitingTime="15.00" speed="15.20" departed="8" arrived="0" entered="20" left="30" laneChangedFrom="0" laneChangedTo="0"/>
        <edge id="18" sampledSeconds="1907.22" traveltime="49.34" overlapTraveltime="49.97" density="1.60" occupancy="0.80" waitingTime="2.00" speed="23.95" departed="8" arrived="0" entered="32" left="37" laneChangedFrom="0" laneChangedTo="0"/>
        <edge id="19" sampledSeconds="5141.09" traveltime="63.24" overlapTraveltime="63.69" density="4.32" occupancy="2.16" waitingTime="0.00" speed="18.77" departed="3" arrived="0" entered="78" left="81" laneChangedFrom="0" laneChangedTo="0"/>
        <edge id="2" sampledSeconds="659.03" traveltime="59.54" overlapTraveltime="59.99" density="0.47" occupancy="0.24" waitingTime="0.00" speed="23.29" departed="4" arrived="0" entered="7" left="11" laneChangedFrom="0" laneChangedTo="0"/>
        <edge id="20" sampledSeconds="9316.18" traveltime="128.67" overlapTraveltime="129.02" density="4.68" occupancy="2.34" waitingTime="0.00" speed="15.48" departed="12" arrived="40" entered="58" left="35" laneChangedFrom="0" laneChangedTo="0"/>
        <edge id="21" sampledSeconds="1908.92" traveltime="256.75" overlapTraveltime="257.47" density="0.96" occupancy="0.48" waitingTime="0.00" speed="7.75" departed="7" arrived="0" entered="0" left="7" laneChangedFrom="0" laneChangedTo="0"/>
        <edge id="22" sampledSeconds="5084.32" traveltime="119.68" overlapTraveltime="120.28" density="4.27" occupancy="2.14" waitingTime="0.00" speed="9.94" departed="14" arrived="0" entered="29" left="43" laneChangedFrom="0" laneChangedTo="0"/>
        <edge id="23" sampledSeconds="1517.39" traveltime="131.52" overlapTraveltime="132.24" density="1.27" occupancy="0.64" waitingTime="0.00" speed="9.04" departed="3" arrived="0" entered="8" left="12" laneChangedFrom="0" laneChangedTo="0"/>
        <edge id="24" sampledSeconds="3860.01" traveltime="257.91" overlapTraveltime="258.95" density="1.94" occupancy="0.97" waitingTime="11.00" speed="7.71" departed="11" arrived="0" entered="5" left="13" laneChangedFrom="0" laneChangedTo="0"/>
        <edge id="25" sampledSeconds="2856.52" traveltime="226.17" overlapTraveltime="227.09" density="2.40" occupancy="1.20" waitingTime="4.00" speed="5.26" departed="7" arrived="0" entered="5" left="14" laneChangedFrom="0" laneChangedTo="0"/>
        <edge id="26" sampledSeconds="1612.59" traveltime="226.18" overlapTraveltime="227.07" density="1.35" occupancy="0.68" waitingTime="0.00" speed="5.26" departed="8" arrived="0" entered="0" left="7" laneChangedFrom="0" laneChangedTo="0"/>
        <edge id="27" sampledSeconds="3927.61" traveltime="277.46" overlapTraveltime="278.13" density="2.19" occupancy="1.10" waitingTime="0.00" speed="6.46" departed="4" arrived="0" entered="11" left="14" laneChangedFrom="0" laneChangedTo="0"/>
        <edge id="28" sampledSeconds="8012.45" traveltime="345.75" overlapTraveltime="346.39" density="3.10" occupancy="1.55" waitingTime="0.00" speed="7.49" departed="6" arrived="0" entered="14" left="28" laneChangedFrom="0" laneChangedTo="0"/>
        <edge id="29" sampledSeconds="5643.13" traveltime="173.99" overlapTraveltime="174.93" density="2.85" occupancy="1.42" waitingTime="15.00" speed="11.36" departed="10" arrived="0" entered="26" left="30" laneChangedFrom="0" laneChangedTo="0"/>
        <edge id="3" sampledSeconds="13655.48" traveltime="221.66" overlapTraveltime="222.21" density="2.53" occupancy="1.27" waitingTime="2.00" speed="24.29" departed="6" arrived="38" entered="52" left="28" laneChangedFrom="0" laneChangedTo="0"/>
        <edge id="30" sampledSeconds="2975.88" traveltime="283.05" overlapTraveltime="283.96" density="1.29" occupancy="0.64" waitingTime="1.00" speed="8.16" departed="9" arrived="0" entered="0" left="12" laneChangedFrom="0" laneChangedTo="0"/>
        <edge id="31" sampledSeconds="3231.05" traveltime="230.57" overlapTraveltime="231.22" density="1.35" occupancy="0.68" waitingTime="0.00" speed="10.36" departed="9" arrived="0" entered="6" left="13" laneChangedFrom="0" laneChangedTo="0"/>
        <edge id="32" sampledSeconds="3150.71" traveltime="278.44" overlapTraveltime="279.14" density="1.76" occupancy="0.88" waitingTime="0.00" speed="6.43" departed="8" arrived="0" entered="5" left="11" laneChangedFrom="0" laneChangedTo="0"/>
        <edge id="33" sampledSeconds="3766.91" traveltime="114.66" overlapTraveltime="115.41" density="2.37" occupancy="1.18" waitingTime="6.00" speed="13.83" departed="3" arrived="0" entered="29" left="32" laneChangedFrom="0" laneChangedTo="0"/>
        <edge id="34" sampledSeconds="1797.05" traveltime="279.04" overlapTraveltime="279.72" density="0.69" occupancy="0.35" waitingTime="0.00" speed="9.28" departed="4" arrived="0" entered="4" left="6" laneChangedFrom="0" laneChangedTo="0"/>
        <edge id="35" sampledSeconds="4456.29" traveltime="93.46" overlapTraveltime="93.68" density="1.86" occupancy="0.93" waitingTime="0.00" speed="25.57" departed="5" arrived="0" entered="40" left="49" laneChangedFrom="0" laneChangedTo="0"/>
        <edge id="36" sampledSeconds="1225.57" traveltime="115.30" overlapTraveltime="115.87" density="0.77" occupancy="0.39" waitingTime="0.00" speed="13.77" departed="9" arrived="0" entered="3" left="8" laneChangedFrom="0" laneChangedTo="0"/>
        <edge id="37" sampledSeconds="13159.95" traveltime="188.77" overlapTraveltime="188.98" density="2.44" occupancy="1.22" waitingTime="0.00" speed="28.56" departed="5" arrived="47" entered="63" left="24" laneChangedFrom="0" laneChangedTo="0"/>
        <edge id="38" sampledSeconds="8990.03" traveltime="189.10" overlapTraveltime="189.49" density="1.67" occupancy="0.83" waitingTime="0.00" speed="28.48" departed="3" arrived="0" entered="45" left="46" laneChangedFrom="0" laneChangedTo="0"/>
        <edge id="39" sampledSeconds="3252.26" traveltime="100.52" overlapTraveltime="101.16" density="2.04" occupancy="1.02" waitingTime="3.00" speed="15.79" departed="5" arrived="0" entered="27" left="32" laneChangedFrom="0" laneChangedTo="0"/>
        <edge id="4" sampledSeconds="1973.44" traveltime="78.42" overlapTraveltime="78.75" density="1.42" occupancy="0.71" waitingTime="0.00" speed="17.74" departed="5" arrived="0" entered="21" left="24" laneChangedFrom="0" laneChangedTo="0"/>
        <edge id="40" sampledSeconds="2758.85" traveltime="278.65" overlapTraveltime="279.38" density="1.06" occupancy="0.53" waitingTime="0.00" speed="9.29" departed="5" arrived="0" entered="6" left="10" laneChangedFrom="0" laneChangedTo="0"/>
        <edge id="41" sampledSeconds="4826.08" traveltime="198.57" overlapTraveltime="199.37" density="2.70" occupancy="1.35" waitingTime="16.00" speed="9.01" departed="10" arrived="0" entered="13" left="23" laneChangedFrom="0" laneChangedTo="0"/>
        <edge id="42" sampledSeconds="1515.08" traveltime="129.66" overlapTraveltime="130.39" density="1.27" occupancy="0.64" waitingTime="0.00" speed="9.17" departed="9" arrived="0" entered="1" left="12" laneChangedFrom="0" laneChangedTo="0"/>
        <edge id="43" sampledSeconds="2717.79" traveltime="348.46" overlapTraveltime="349.37" density="1.05" occupancy="0.53" waitingTime="9.00" speed="7.42" departed="8" arrived="0" entered="0" left="8" laneChangedFrom="0" laneChangedTo="0"/>
        <edge id="44" sampledSeconds="1467.64" traveltime="198.25" overlapTraveltime="198.95" density="0.82" occupancy="0.41" waitingTime="0.00" speed="9.03" departed="6" arrived="0" entered="0" left="7" laneChangedFrom="0" laneChangedTo="0"/>
        <edge id="45" sampledSeconds="7018.27" traveltime="127.83" overlapTraveltime="128.21" density="3.53" occupancy="1.76" waitingTime="0.00" speed="15.56" departed="3" arrived="0" entered="52" left="55" laneChangedFrom="0" laneChangedTo="0"/>