<?xml version="1.0" encoding="UTF-8"?>

<!-- generated on 02/12/18 15:50:25 by SUMO Version 0.30.0
<?xml version="1.0" encoding="UTF-8"?>

<configuration xmlns:xsi="http://www.w3.org/2001/XMLSchema-instance" xsi:noNamespaceSchemaLocation="http://sumo.dlr.de/xsd/sumoConfiguration.xsd">

    <input>
        <net-file value="C:/Users/Shekar/Desktop/laptop/sumo_sim/sioux_falls/config/../network/sf_net.net.xml"/>
        <route-files value="C:/Users/Shekar/Desktop/laptop/sumo_sim/sioux_falls/config/../trips/trip.xml"/>
        <additional-files value="C:/Users/Shekar/Desktop/laptop/sumo_sim/sioux_falls/config/additional_48__0_1000.xml"/>
    </input>

    <output>
        <summary-output value="C:/Users/Shekar/Desktop/laptop/sumo_sim/sioux_falls/config/../output/summary_48__0_1000.xml"/>
    </output>

    <processing>
        <time-to-teleport value="300"/>
    </processing>

    <report>
        <log value="C:/Users/Shekar/Desktop/laptop/sumo_sim/sioux_falls/config/../output/report_48__0_1000.xml"/>
    </report>

</configuration>
-->

<meandata xmlns:xsi="http://www.w3.org/2001/XMLSchema-instance" xsi:noNamespaceSchemaLocation="http://sumo.dlr.de/xsd/meandata_file.xsd">
    <interval begin="0.00" end="1000.00" id="1">
        <edge id="1" sampledSeconds="5438.81" traveltime="222.34" overlapTraveltime="222.67" density="1.01" occupancy="0.50" waitingTime="1.00" speed="24.24" departed="6" arrived="10" entered="24" left="8" laneChangedFrom="0" laneChangedTo="0"/>
        <edge id="10" sampledSeconds="1644.66" traveltime="231.06" overlapTraveltime="231.69" density="0.69" occupancy="0.34" waitingTime="0.00" speed="10.34" departed="8" arrived="0" entered="0" left="5" laneChangedFrom="0" laneChangedTo="0"/>
        <edge id="11" sampledSeconds="2338.62" traveltime="84.73" overlapTraveltime="85.06" density="1.31" occupancy="0.65" waitingTime="0.00" speed="21.11" departed="4" arrived="0" entered="25" left="27" laneChangedFrom="0" laneChangedTo="0"/>
        <edge id="12" sampledSeconds="4441.18" traveltime="126.70" overlapTraveltime="127.39" density="2.23" occupancy="1.12" waitingTime="4.00" speed="15.66" departed="5" arrived="0" entered="31" left="34" laneChangedFrom="0" laneChangedTo="0"/>
        <edge id="13" sampledSeconds="1064.09" traveltime="132.84" overlapTraveltime="133.58" density="0.89" occupancy="0.45" waitingTime="0.00" speed="8.95" departed="8" arrived="0" entered="0" left="8" laneChangedFrom="0" laneChangedTo="0"/>
        <edge id="14" sampledSeconds="4314.89" traveltime="78.05" overlapTraveltime="78.33" density="3.10" occupancy="1.55" waitingTime="0.00" speed="17.84" departed="5" arrived="18" entered="56" left="32" laneChangedFrom="0" laneChangedTo="0"/>
        <edge id="15" sampledSeconds="3151.50" traveltime="126.44" overlapTraveltime="126.88" density="1.58" occupancy="0.79" waitingTime="0.00" speed="15.73" departed="10" arrived="0" entered="17" left="23" laneChangedFrom="0" laneChangedTo="0"/>
        <edge id="16" sampledSeconds="2489.82" traveltime="63.79" overlapTraveltime="64.41" density="2.09" occupancy="1.05" waitingTime="0.00" speed="18.56" departed="5" arrived="0" entered="35" left="37" laneChangedFrom="0" laneChangedTo="0"/>
        <edge id="17" sampledSeconds="3328.52" traveltime="130.33" overlapTraveltime="131.00" density="1.67" occupancy="0.84" waitingTime="0.00" speed="15.24" departed="11" arrived="0" entered="17" left="24" laneChangedFrom="0" laneChangedTo="0"/>
        <edge id="18" sampledSeconds="1140.19" traveltime="48.73" overlapTraveltime="49.61" density="0.96" occupancy="0.48" waitingTime="7.00" speed="24.13" departed="4" arrived="0" entered="19" left="23" laneChangedFrom="0" laneChangedTo="0"/>
        <edge id="19" sampledSeconds="3850.23" traveltime="63.71" overlapTraveltime="64.17" density="3.23" occupancy="1.62" waitingTime="0.00" speed="18.63" departed="10" arrived="0" entered="52" left="57" laneChangedFrom="0" laneChangedTo="0"/>
        <edge id="2" sampledSeconds="738.81" traveltime="61.04" overlapTraveltime="61.70" density="0.53" occupancy="0.27" waitingTime="0.00" speed="22.64" departed="7" arrived="0" entered="5" left="12" laneChangedFrom="0" laneChangedTo="0"/>
        <edge id="20" sampledSeconds="5001.59" traveltime="129.24" overlapTraveltime="129.64" density="2.51" occupancy="1.26" waitingTime="1.00" speed="15.40" departed="9" arrived="15" entered="34" left="20" laneChangedFrom="0" laneChangedTo="0"/>
        <edge id="21" sampledSeconds="907.96" traveltime="257.22" overlapTraveltime="257.99" density="0.46" occupancy="0.23" waitingTime="0.00" speed="7.73" departed="4" arrived="0" entered="0" left="3" laneChangedFrom="0" laneChangedTo="0"/>
        <edge id="22" sampledSeconds="3154.05" traveltime="119.28" overlapTraveltime="119.79" density="2.65" occupancy="1.32" waitingTime="0.00" speed="9.98" departed="5" arrived="0" entered="24" left="24" laneChangedFrom="0" laneChangedTo="0"/>
        <edge id="23" sampledSeconds="1373.50" traveltime="132.23" overlapTraveltime="132.98" density="1.15" occupancy="0.58" waitingTime="1.00" speed="8.99" departed="6" arrived="0" entered="6" left="9" laneChangedFrom="0" laneChangedTo="0"/>
        <edge id="24" sampledSeconds="2580.09" traveltime="257.45" overlapTraveltime="258.41" density="1.30" occupancy="0.65" waitingTime="3.00" speed="7.72" departed="6" arrived="0" entered="4" left="10" laneChangedFrom="0" laneChangedTo="0"/>
        <edge id="25" sampledSeconds="2088.53" traveltime="226.63" overlapTraveltime="227.54" density="1.75" occupancy="0.88" waitingTime="0.00" speed="5.25" departed="8" arrived="0" entered="3" left="6" laneChangedFrom="0" laneChangedTo="0"/>
        <edge id="26" sampledSeconds="451.74" traveltime="225.95" overlapTraveltime="226.84" density="0.38" occupancy="0.19" waitingTime="0.00" speed="5.27" departed="2" arrived="0" entered="0" left="2" laneChangedFrom="0" laneChangedTo="0"/>
        <edge id="27" sampledSeconds="1795.87" traveltime="277.82" overlapTraveltime="278.51" density="1.00" occupancy="0.50" waitingTime="0.00" speed="6.45" departed="4" arrived="0" entered="5" left="5" laneChangedFrom="0" laneChangedTo="0"/>
        <edge id="28" sampledSeconds="4755.81" traveltime="346.66" overlapTraveltime="347.31" density="1.84" occupancy="0.92" waitingTime="0.00" speed="7.47" departed="11" arrived="0" entered="10" left="7" laneChangedFrom="0" laneChangedTo="0"/>
        <edge id="29" sampledSeconds="3237.82" traveltime="174.70" overlapTraveltime="175.61" density="1.63" occupancy="0.82" waitingTime="12.00" speed="11.32" departed="4" arrived="0" entered="15" left="17" laneChangedFrom="0" laneChangedTo="0"/>
        <edge id="3" sampledSeconds="6130.48" traveltime="221.69" overlapTraveltime="221.99" density="1.14" occupancy="0.57" waitingTime="0.00" speed="24.32" departed="3" arrived="10" entered="36" left="7" laneChangedFrom="0" laneChangedTo="0"/>
        <edge id="30" sampledSeconds="855.97" traveltime="283.14" overlapTraveltime="283.76" density="0.37" occupancy="0.19" waitingTime="0.00" speed="8.16" departed="6" arrived="0" entered="0" left="1" laneChangedFrom="0" laneChangedTo="0"/>
        <edge id="31" sampledSeconds="1030.24" traveltime="232.08" overlapTraveltime="232.91" density="0.43" occupancy="0.22" waitingTime="1.00" speed="10.28" departed="4" arrived="0" entered="1" left="4" laneChangedFrom="0" laneChangedTo="0"/>
        <edge id="32" sampledSeconds="2371.86" traveltime="277.97" overlapTraveltime="278.69" density="1.32" occupancy="0.66" waitingTime="0.00" speed="6.44" departed="6" arrived="0" entered="3" left="8" laneChangedFrom="0" laneChangedTo="0"/>
        <edge id="33" sampledSeconds="2210.22" traveltime="116.16" overlapTraveltime="117.06" density="1.39" occupancy="0.69" waitingTime="8.00" speed="13.63" departed="4" arrived="0" entered="18" left="17" laneChangedFrom="0" laneChangedTo="0"/>
        <edge id="34" sampledSeconds="1387.07" traveltime="280.35" overlapTraveltime="281.08" density="0.54" occupancy="0.27" waitingTime="0.00" speed="9.23" departed="6" arrived="0" entered="0" left="4" laneChangedFrom="0" laneChangedTo="0"/>
        <edge id="35" sampledSeconds="2489.82" traveltime="95.21" overlapTraveltime="95.48" density="1.04" occupancy="0.52" waitingTime="0.00" speed="25.09" departed="7" arrived="0" entered="24" left="23" laneChangedFrom="0" laneChangedTo="0"/>
        <edge id="36" sampledSeconds="540.89" traveltime="115.69" overlapTraveltime="116.39" density="0.34" occupancy="0.17" waitingTime="0.00" speed="13.71" departed="4" arrived="0" entered="1" left="4" laneChangedFrom="0" laneChangedTo="0"/>
        <edge id="37" sampledSeconds="8593.62" traveltime="188.84" overlapTraveltime="189.09" density="1.59" occupancy="0.80" waitingTime="0.00" speed="28.54" departed="4" arrived="18" entered="48" left="21" laneChangedFrom="0" laneChangedTo="0"/>
        <edge id="38" sampledSeconds="4720.20" traveltime="190.09" overlapTraveltime="190.79" density="0.88" occupancy="0.44" waitingTime="4.00" speed="28.29" departed="5" arrived="0" entered="23" left="23" laneChangedFrom="0" laneChangedTo="0"/>
        <edge id="39" sampledSeconds="2823.03" traveltime="101.36" overlapTraveltime="102.16" density="1.77" occupancy="0.89" waitingTime="1.00" speed="15.63" departed="8" arrived="0" entered="21" left="27" laneChangedFrom="0" laneChangedTo="0"/>
        <edge id="4" sampledSeconds="1378.62" traveltime="80.71" overlapTraveltime="81.32" density="0.99" occupancy="0.50" waitingTime="2.00" speed="17.18" departed="13" arrived="0" entered="4" left="17" laneChangedFrom="0" laneChangedTo="0"/>
        <edge id="40" sampledSeconds="2472.04" traveltime="278.94" overlapTraveltime="279.64" density="0.95" occupancy="0.48" waitingTime="0.00" speed="9.28" departed="6" arrived="0" entered="5" left="8" laneChangedFrom="0" laneChangedTo="0"/>
        <edge id="41" sampledSeconds="3319.90" traveltime="197.78" overlapTraveltime="198.54" density="1.85" occupancy="0.93" waitingTime="3.00" speed="9.04" departed="9" arrived="0" entered="10" left="15" laneChangedFrom="0" laneChangedTo="0"/>
        <edge id="42" sampledSeconds="697.24" traveltime="130.56" overlapTraveltime="131.22" density="0.59" occupancy="0.29" waitingTime="0.00" speed="9.11" departed="7" arrived="0" entered="0" left="5" laneChangedFrom="0" laneChangedTo="0"/>
        <edge id="43" sampledSeconds="3109.87" traveltime="347.60" overlapTraveltime="348.48" density="1.20" occupancy="0.60" waitingTime="3.00" speed="7.44" departed="11" arrived="0" entered="0" left="7" laneChangedFrom="0" laneChangedTo="0"/>
        <edge id="44" sampledSeconds="842.80" traveltime="198.35" overlapTraveltime="198.97" density="0.47" occupancy="0.24" waitingTime="0.00" speed="9.02" departed="5" arrived="0" entered="1" left="4" laneChangedFrom="0" laneChangedTo="0"/>
        <edge id="45" sampledSeconds="3992.41" traveltime="128.06" overlapTraveltime="128.45" density="2.01" occupancy="1.00" waitingTime="0.00" speed="15.53" departed="4" arrived="0" entered="31" left="28" laneChangedFrom="0" laneChangedTo="0"/>
        <edge id="46" sampledSeconds="2520.81" traveltime="71.52" overlapTraveltime="72.07" density="2.12" occupancy="1.06" waitingTime="0.00" speed="16.59" departed="5" arrived="0" entered="34" left="30" laneChangedFrom="0" laneChangedTo="0"/>
        <edge id="47" sampledSeconds="5183.85" traveltime="119.22" overlapTraveltime="119.71" density="4.35" occupancy="2.18" waitingTime="0.00" speed="9.99" departed="5" arrived="0" entered="41" left="39" laneChangedFrom="0" laneChangedTo="0"/>
        <edge id="48" sampledSeconds="1400.33" traveltime="174.47" overlapTraveltime="175.30" density="0.71" occupancy="0.35" waitingTime="0.00" speed="11.33" departed="9" arrived="0" entered="0" left="7" laneChangedFrom="0" laneChangedTo="0"/>
        <edge id="49" sampledSeconds="1751.40" traveltime="40.86" overlapTraveltime="41.21" density="1.47" occupancy="0.74" waitingTime="0.00" speed="28.95" departed="10" arrived="0" entered="33" left="42" laneChangedFrom="0" laneChangedTo="0"/>
        <edge id="5" sampledSeconds="1986.22" traveltime="58.55" overlapTraveltime="58.81" density="1.43" occupancy="0.71" waitingTime="0.00" speed="23.75" departed="6" arrived="11" entered="29" left="22" laneChangedFrom="0" laneChangedTo="0"/>
        <edge id="50" sampledSeconds="4063.31" traveltime="159.42" overlapTraveltime="160.16" density="2.04" occupancy="1.02" waitingTime="7.00" speed="12.45" departed="9" arrived="0" entered="17" left="25" laneChangedFrom="0" laneChangedTo="0"/>
        <edge id="51" sampledSeconds="614.98" traveltime="282.43" overlapTraveltime="283.07" density="0.27" occupancy="0.13" waitingTime="0.00" speed="8.19" departed="3" arrived="0" entered="0" left="2" laneChangedFrom="0" laneChangedTo="0"/>
        <edge id="52" sampledSeconds="1789.78" traveltime="40.65" overlapTraveltime="41.22" density="1.51" occupancy="0.75" waitingTime="6.00" speed="28.94" departed="10" arrived="0" entered="36" left="42" laneChangedFrom="0" laneChangedTo="0"/>
        <edge id="53" sampledSeconds="5107.90" traveltime="110.91" overlapTraveltime="111.46" density="3.67" occupancy="1.83" waitingTime="0.00" speed="12.53" departed="11" arrived="0" entered="39" left="39" laneChangedFrom="0" laneChangedTo="0"/>
        <edge id="54" sampledSeconds="1664.98" traveltime="48.73" overlapTraveltime="49.00" density="1.40" occupancy="0.70" waitingTime="0.00" speed="24.43" departed="4" arrived="18" entered="30" left="16" laneChangedFrom="0" laneChangedTo="0"/>
        <edge id="55" sampledSeconds="1592.49" traveltime="162.87" overlapTraveltime="163.79" density="0.80" occupancy="0.40" waitingTime="15.00" speed="12.17" departed="10" arrived="0" entered="1" left="9" laneChangedFrom="0" laneChangedTo="0"/>
        <edge id="56" sampledSeconds="7021.59" traveltime="215.38" overlapTraveltime="215.68" density="1.22" occupancy="0.61" waitingTime="0.00" speed="26.60" departed="9" arrived="9" entered="33" left="15" laneChangedFrom="0" laneChangedTo="0"/>
        <edge id="57" sampledSeconds="2930.72" traveltime="129.70" overlapTraveltime="130.47" density="1.47" occupancy="0.74" waitingTime="9.00" speed="15.30" departed="4" arrived="0" entered="20" left="20" laneChangedFrom="0" laneChangedTo="0"/>
        <edge id="58" sampledSeconds="3641.44" traveltime="110.48" overlapTraveltime="110.88" density="2.62" occupancy="1.31" waitingTime="0.00" speed="12.60" departed="7" arrived="0" entered="27" left="32" laneChangedFrom="0" laneChangedTo="0"/>
        <edge id="59" sampledSeconds="5117.15" traveltime="240.57" overlapTraveltime="241.03" density="1.84" occupancy="0.92" waitingTime="0.00" speed="11.54" departed="5" arrived="11" entered="24" left="3" laneChangedFrom="0" laneChangedTo="0"/>
        <edge id="6" sampledSeconds="1824.65" traveltime="94.88" overlapTraveltime="95.22" density="1.15" occupancy="0.57" waitingTime="0.00" speed="16.76" departed="7" arrived="0" entered="14" left="19" laneChangedFrom="0" laneChangedTo="0"/>
        <edge id="60" sampledSeconds="3812.37" traveltime="216.12" overlapTraveltime="216.43" density="0.67" occupancy="0.33" waitingTime="0.00" speed="26.51" departed="6" arrived="0" entered="14" left="16" laneChangedFrom="0" laneChangedTo="0"/>
        <edge id="61" sampledSeconds="1187.40" traveltime="242.88" overlapTraveltime="243.73" density="0.43" occupancy="0.21" waitingTime="1.00" speed="11.41" departed="4" arrived="0" entered="1" left="4" laneChangedFrom="0" laneChangedTo="0"/>
        <edge id="62" sampledSeconds="4060.47" traveltime="223.03" overlapTraveltime="223.87" density="2.05" occupancy="1.02" waitingTime="16.00" speed="8.89" departed="5" arrived="0" entered="15" left="17" laneChangedFrom="0" laneChangedTo="0"/>
        <edge id="63" sampledSeconds="1837.81" traveltime="217.68" overlapTraveltime="218.36" density="0.72" occupancy="0.36" waitingTime="0.00" speed="11.67" departed="5" arrived="0" entered="4" left="8" laneChangedFrom="0" laneChangedTo="0"/>
        <edge id="64" sampledSeconds="4975.02" traveltime="221.44" overlapTraveltime="222.02" density="2.51" occupancy="1.25" waitingTime="0.00" speed="8.96" departed="4" arrived="8" entered="23" left="8" laneChangedFrom="0" laneChangedTo="0"/>
        <edge id="65" sampledSeconds="3190.82" traveltime="126.76" overlapTraveltime="127.24" density="2.01" occupancy="1.01" waitingTime="0.00" speed="12.51" departed="11" arrived="0" entered="15" left="23" laneChangedFrom="0" laneChangedTo="0"/>
        <edge id="66" sampledSeconds="4530.62" traveltime="127.46" overlapTraveltime="127.83" density="2.53" occupancy="1.27" waitingTime="0.00" speed="14.05" departed="7" arrived="0" entered="31" left="31" laneChangedFrom="0" laneChangedTo="0"/>
        <edge id="67" sampledSeconds="1851.82" traveltime="71.40" overlapTraveltime="71.87" density="1.56" occupancy="0.78" waitingTime="0.00" speed="16.63" departed="8" arrived="0" entered="19" left="24" laneChangedFrom="0" laneChangedTo="0"/>
        <edge id="68" sampledSeconds="6697.53" traveltime="254.41" overlapTraveltime="254.97" density="2.63" occupancy="1.32" waitingTime="0.00" speed="9.99" departed="6" arrived="10" entered="26" left="8" laneChangedFrom="0" laneChangedTo="0"/>
        <edge id="69" sampledSeconds="1932.45" traveltime="60.18" overlapTraveltime="60.55" density="1.22" occupancy="0.61" waitingTime="0.00" speed="26.29" departed="8" arrived="0" entered="26" left="31" laneChangedFrom="0" laneChangedTo="0"/>
        <edge id="7" sampledSeconds="3281.43" traveltime="94.74" overlapTraveltime="94.95" density="1.37" occupancy="0.69" waitingTime="0.00" speed="25.23" departed="5" arrived="0" entered="30" left="33" laneChangedFrom="0" laneChangedTo="0"/>
        <edge id="70" sampledSeconds="948.66" traveltime="174.43" overlapTraveltime="175.14" density="0.53" occupancy="0.26" waitingTime="0.00" speed="10.25" departed="6" arrived="0" entered="0" left="5" laneChangedFrom="0" laneChangedTo="0"/>
        <edge id="71" sampledSeconds="945.13" traveltime="129.80" overlapTraveltime="130.43" density="0.79" occupancy="0.40" waitingTime="0.00" speed="9.17" departed="7" arrived="0" entered="1" left="7" laneChangedFrom="0" laneChangedTo="0"/>
        <edge id="72" sampledSeconds="2291.70" traveltime="174.06" overlapTraveltime="174.84" density="1.28" occupancy="0.64" waitingTime="11.00" speed="10.27" departed="6" arrived="0" entered="10" left="10" laneChangedFrom="0" laneChangedTo="0"/>
        <edge id="73" sampledSeconds="1801.80" traveltime="154.07" overlapTraveltime="154.71" density="1.13" occupancy="0.57" waitingTime="0.00" speed="10.31" departed="7" arrived="0" entered="7" left="10" laneChangedFrom="0" laneChangedTo="0"/>
        <edge id="74" sampledSeconds="4710.14" traveltime="100.43" overlapTraveltime="100.76" density="2.96" occupancy="1.48" waitingTime="0.00" speed="15.85" departed="5" arrived="18" entered="50" left="23" laneChangedFrom="0" laneChangedTo="0"/>
        <edge id="75" sampledSeconds="3004.72" traveltime="129.31" overlapTraveltime="130.12" density="1.68" occupancy="0.84" waitingTime="7.00" speed="13.80" departed="8" arrived="0" entered="17" left="21" laneChangedFrom="0" laneChangedTo="0"/>
        <edge id="76" sampledSeconds="1272.15" traveltime="154.77" overlapTraveltime="155.49" density="0.80" occupancy="0.40" waitingTime="0.00" speed="10.26" departed="8" arrived="0" entered="1" left="8" laneChangedFrom="0" laneChangedTo="0"/>
        <edge id="8" sampledSeconds="3772.93" traveltime="95.41" overlapTraveltime="96.06" density="2.37" occupancy="1.19" waitingTime="2.00" speed="16.61" departed="10" arrived="0" entered="30" left="38" laneChangedFrom="0" laneChangedTo="0"/>
        <edge id="9" sampledSeconds="2174.20" traveltime="84.97" overlapTraveltime="85.43" density="1.21" occupancy="0.61" waitingTime="1.00" speed="21.02" departed="6" arrived="0" entered="20" left="24" laneChangedFrom="0" laneChangedTo="0"/>
    </interval>
    <interval begin="1000.00" end="2000.00" id="2">
        <edge id="1" sampledSeconds="13614.65" traveltime="221.91" overlapTraveltime="222.17" density="2.52" occupancy="1.26" waitingTime="0.00" speed="24.30" departed="8" arrived="40" entered="57" left="18" laneChangedFrom="0" laneChangedTo="0"/>
        <edge id="10" sampledSeconds="2559.95" traveltime="231.72" overlapTraveltime="232.49" density="1.07" occupancy="0.54" waitingTime="2.00" speed="10.30" departed="11" arrived="0" entered="0" left="12" laneChangedFrom="0" laneChangedTo="0"/>
        <edge id="11" sampledSeconds="4024.11" traveltime="85.37" overlapTraveltime="85.88" density="2.25" occupancy="1.12" waitingTime="3.00" speed="20.91" departed="12" arrived="0" entered="36" left="43" laneChangedFrom="0" laneChangedTo="0"/>
        <edge id="12" sampledSeconds="6212.61" traveltime="126.22" overlapTraveltime="126.99" density="3.12" occupancy="1.56" waitingTime="6.00" speed="15.71" departed="4" arrived="0" entered="47" left="47" laneChangedFrom="0" laneChangedTo="0"/>
        <edge id="13" sampledSeconds="694.33" traveltime="133.24" overlapTraveltime="134.06" density="0.58" occupancy="0.29" waitingTime="0.00" speed="8.92" departed="6" arrived="0" entered="0" left="4" laneChangedFrom="0" laneChangedTo="0"/>
        <edge id="14" sampledSeconds="6769.34" traveltime="78.05" overlapTraveltime="78.34" density="4.86" occupancy="2.43" waitingTime="0.00" speed="17.83" departed="8" arrived="32" entered="79" left="52" laneChangedFrom="0" laneChangedTo="0"/>
        <edge id="15" sampledSeconds="4070.51" traveltime="125.86" overlapTraveltime="126.24" density="2.04" occupancy="1.02" waitingTime="0.00" speed="15.81" departed="7" arrived="0" entered="24" left="33" laneChangedFrom="0" laneChangedTo="0"/>
        <edge id="16" sampledSeconds="3193.95" traveltime="63.70" overlapTraveltime="64.51" density="2.68" occupancy="1.34" waitingTime="0.00" speed="18.53" departed="3" arrived="0" entered="47" left="50" laneChangedFrom="0" laneChangedTo="0"/>
        <edge id="17" sampledSeconds="3797.40" traveltime="130.33" overlapTraveltime="131.23" density="1.91" occupancy="0.95" waitingTime="6.00" speed="15.22" departed="8" arrived="0" entered="20" left="30" laneChangedFrom="0" laneChangedTo="0"/>
        <edge id="18" sampledSeconds="1866.12" traveltime="49.43" overlapTraveltime="50.25" density="1.57" occupancy="0.78" waitingTime="7.00" speed="23.82" departed="8" arrived="0" entered="31" left="36" laneChangedFrom="0" laneChangedTo="0"/>
        <edge id="19" sampledSeconds="5140.10" traveltime="63.23" overlapTraveltime="63.66" density="4.32" occupancy="2.16" waitingTime="0.00" speed="18.78" departed="3" arrived="0" entered="78" left="81" laneChangedFrom="0" laneChangedTo="0"/>
        <edge id="2" sampledSeconds="661.13" traveltime="59.73" overlapTraveltime="60.18" density="0.47" occupancy="0.24" waitingTime="0.00" speed="23.21" departed="4" arrived="0" entered="7" left="11" laneChangedFrom="0" laneChangedTo="0"/>
        <edge id="20" sampledSeconds="9244.15" traveltime="128.63" overlapTraveltime="128.97" density="4.64" occupancy="2.32" waitingTime="0.00" speed="15.48" departed="12" arrived="40" entered="58" left="34" laneChangedFrom="0" laneChangedTo="0"/>
        <edge id="21" sampledSeconds="1914.93" traveltime="257.60" overlapTraveltime="258.42" density="0.96" occupancy="0.48" waitingTime="0.00" speed="7.72" departed="7" arrived="0" entered="0" left="7" laneChangedFrom="0" laneChangedTo="0"/>
        <edge id="22" sampledSeconds="5025.57" traveltime="119.66" overlapTraveltime="120.40" density="4.22" occupancy="2.11" waitingTime="5.00" speed="9.93" departed="14" arrived="0" entered="28" left="43" laneChangedFrom="0" laneChangedTo="0"/>
        <edge id="23" sampledSeconds="1524.91" traveltime="132.13" overlapTraveltime="132.98" density="1.28" occupancy="0.64" waitingTime="5.00" speed="8.99" departed="3" arrived="0" entered="8" left="12" laneChangedFrom="0" laneChangedTo="0"/>
        <edge id="24" sampledSeconds="3858.89" traveltime="257.87" overlapTraveltime="258.96" density="1.94" occupancy="0.97" waitingTime="13.00" speed="7.71" departed="11" arrived="0" entered="5" left="13" laneChangedFrom="0" laneChangedTo="0"/>
        <edge id="25" sampledSeconds="2868.42" traveltime="227.23" overlapTraveltime="228.17" density="2.41" occupancy="1.20" waitingTime="17.00" speed="5.24" departed="7" arrived="0" entered="5" left="14" laneChangedFrom="0" laneChangedTo="0"/>
        <edge id="26" sampledSeconds="1612.94" traveltime="226.12" overlapTraveltime="227.02" density="1.35" occupancy="0.68" waitingTime="0.00" speed="5.27" departed="8" arrived="0" entered="0" left="7" laneChangedFrom="0" laneChangedTo="0"/>
        <edge id="27" sampledSeconds="3542.48" traveltime="277.90" overlapTraveltime="278.62" density="1.98" occupancy="0.99" waitingTime="0.00" speed="6.44" departed="4" arrived="0" entered="10" left="12" laneChangedFrom="0" laneChangedTo="0"/>
        <edge id="28" sampledSeconds="8016.64" traveltime="345.24" overlapTraveltime="345.89" density="3.10" occupancy="1.55" waitingTime="0.00" speed="7.50" departed="6" arrived="0" entered="14" left="28" laneChangedFrom="0" laneChangedTo="0"/>
        <edge id="29" sampledSeconds="5636.16" traveltime="173.95" overlapTraveltime="174.76" density="2.84" occupancy="1.42" waitingTime="25.00" speed="11.37" departed="10" arrived="0" entered="26" left="30" laneChangedFrom="0" laneChangedTo="0"/>
        <edge id="3" sampledSeconds="13676.16" traveltime="221.60" overlapTraveltime="222.10" density="2.54" occupancy="1.27" waitingTime="1.00" speed="24.31" departed="6" arrived="38" entered="52" left="28" laneChangedFrom="0" laneChangedTo="0"/>
        <edge id="30" sampledSeconds="2979.24" traveltime="283.56" overlapTraveltime="284.56" density="1.29" occupancy="0.64" waitingTime="9.00" speed="8.14" departed="9" arrived="0" entered="0" left="12" laneChangedFrom="0" laneChangedTo="0"/>
        <edge id="31" sampledSeconds="3241.28" traveltime="231.02" overlapTraveltime="231.84" density="1.36" occupancy="0.68" waitingTime="3.00" speed="10.33" departed="9" arrived="0" entered="6" left="13" laneChangedFrom="0" laneChangedTo="0"/>
        <edge id="32" sampledSeconds="3147.59" traveltime="278.10" overlapTraveltime="278.84" density="1.76" occupancy="0.88" waitingTime="0.00" speed="6.44" departed="8" arrived="0" entered="5" left="11" laneChangedFrom="0" laneChangedTo="0"/>
        <edge id="33" sampledSeconds="3543.36" traveltime="115.10" overlapTraveltime="115.86" density="2.23" occupancy="1.11" waitingTime="14.00" speed="13.77" departed="3" arrived="0" entered="27" left="30" laneChangedFrom="0" laneChangedTo="0"/>
        <edge id="34" sampledSeconds="2077.88" traveltime="278.41" overlapTraveltime="279.16" density="0.80" occupancy="0.40" waitingTime="0.00" speed="9.30" departed="4" arrived="0" entered="5" left="7" laneChangedFrom="0" laneChangedTo="0"/>
        <edge id="35" sampledSeconds="4594.76" traveltime="93.56" overlapTraveltime="93.79" density="1.92" occupancy="0.96" waitingTime="0.00" speed="25.54" departed="5" arrived="0" entered="41" left="50" laneChangedFrom="0" laneChangedTo="0"/>
        <edge id="36" sampledSeconds="1263.85" traveltime="115.27" overlapTraveltime="115.84" density="0.79" occupancy="0.40" waitingTime="0.00" speed="13.77" departed="9" arrived="0" entered="3" left="9" laneChangedFrom="0" laneChangedTo="0"/>
        <edge id="37" sampledSeconds="12967.01" traveltime="188.72" overlapTraveltime="188.92" density="2.40" occupancy="1.20" waitingTime="0.00" speed="28.57" departed="5" arrived="46" entered="63" left="24" laneChangedFrom="0" laneChangedTo="0"/>
        <edge id="38" sampledSeconds="9120.87" traveltime="188.98" overlapTraveltime="189.63" density="1.69" occupancy="0.85" waitingTime="5.00" speed="28.46" departed="3" arrived="0" entered="45" left="47" laneChangedFrom="0" laneChangedTo="0"/>
        <edge id="39" sampledSeconds="3250.46" traveltime="100.50" overlapTraveltime="101.10" density="2.04" occupancy="1.02" waitingTime="0.00" speed="15.80" departed="5" arrived="0" entered="27" left="32" laneChangedFrom="0" laneChangedTo="0"/>
        <edge id="4" sampledSeconds="1754.36" traveltime="78.76" overlapTraveltime="79.20" density="1.26" occupancy="0.63" waitingTime="1.00" speed="17.64" departed="5" arrived="0" entered="18" left="22" laneChangedFrom="0" laneChangedTo="0"/>
        <edge id="40" sampledSeconds="2770.43" traveltime="278.99" overlapTraveltime="279.79" density="1.07" occupancy="0.53" waitingTime="1.00" speed="9.28" departed="5" arrived="0" entered="6" left="10" laneChangedFrom="0" laneChangedTo="0"/>
        <edge id="41" sampledSeconds="5009.02" traveltime="197.84" overlapTraveltime="198.54" density="2.80" occupancy="1.40" waitingTime="7.00" speed="9.04" departed="10" arrived="0" entered="14" left="24" laneChangedFrom="0" laneChangedTo="0"/>
        <edge id="42" sampledSeconds="1514.05" traveltime="129.64" overlapTraveltime="130.32" density="1.27" occupancy="0.64" waitingTime="0.00" speed="9.17" departed="9" arrived="0" entered="1" left="12" laneChangedFrom="0" laneChangedTo="0"/>
        <edge id="43" sampledSeconds="2708.06" traveltime="347.09" overlapTraveltime="347.79" density="1.05" occupancy="0.52" waitingTime="0.00" speed="7.46" departed="8" arrived="0" entered="0" left="8" laneChangedFrom="0" laneChangedTo="0"/>
        <edge id="44" sampledSeconds="1468.81" traveltime="198.46" overlapTraveltime="199.18" density="0.82" occupancy="0.41" waitingTime="0.00" speed="9.01" departed="6" arrived="0" entered="0" left="7" laneChangedFrom="0" laneChangedTo="0"/>
        <edge id="45" sampledSeconds="6954.74" traveltime="127.84" overlapTraveltime="128.23" density="3.49" occupancy="1.75" waitingTime="0.00" speed="15.56" departed="3" arrived="0" entered="52" left="54" laneChangedFrom="0" laneChangedTo="0"/>