<?xml version="1.0" encoding="UTF-8"?>

<!-- generated on 02/12/18 15:33:53 by SUMO Version 0.30.0
<?xml version="1.0" encoding="UTF-8"?>

<configuration xmlns:xsi="http://www.w3.org/2001/XMLSchema-instance" xsi:noNamespaceSchemaLocation="http://sumo.dlr.de/xsd/sumoConfiguration.xsd">

    <input>
        <net-file value="C:/Users/Shekar/Desktop/laptop/sumo_sim/sioux_falls/config/../network/sf_net.net.xml"/>
        <route-files value="C:/Users/Shekar/Desktop/laptop/sumo_sim/sioux_falls/config/../trips/trip.xml"/>
        <additional-files value="C:/Users/Shekar/Desktop/laptop/sumo_sim/sioux_falls/config/additional_19__0_1000.xml"/>
    </input>

    <output>
        <summary-output value="C:/Users/Shekar/Desktop/laptop/sumo_sim/sioux_falls/config/../output/summary_19__0_1000.xml"/>
    </output>

    <processing>
        <time-to-teleport value="300"/>
    </processing>

    <report>
        <log value="C:/Users/Shekar/Desktop/laptop/sumo_sim/sioux_falls/config/../output/report_19__0_1000.xml"/>
    </report>

</configuration>
-->

<meandata xmlns:xsi="http://www.w3.org/2001/XMLSchema-instance" xsi:noNamespaceSchemaLocation="http://sumo.dlr.de/xsd/meandata_file.xsd">
    <interval begin="0.00" end="1000.00" id="1">
        <edge id="1" sampledSeconds="5176.50" traveltime="222.16" overlapTraveltime="222.49" density="0.96" occupancy="0.48" waitingTime="1.00" speed="24.26" departed="6" arrived="10" entered="22" left="8" laneChangedFrom="0" laneChangedTo="0"/>
        <edge id="10" sampledSeconds="1644.04" traveltime="231.42" overlapTraveltime="232.06" density="0.69" occupancy="0.34" waitingTime="0.00" speed="10.32" departed="8" arrived="0" entered="0" left="5" laneChangedFrom="0" laneChangedTo="0"/>
        <edge id="11" sampledSeconds="2032.21" traveltime="85.26" overlapTraveltime="85.56" density="1.13" occupancy="0.57" waitingTime="0.00" speed="20.98" departed="4" arrived="0" entered="21" left="23" laneChangedFrom="0" laneChangedTo="0"/>
        <edge id="12" sampledSeconds="5565.88" traveltime="126.49" overlapTraveltime="127.13" density="2.80" occupancy="1.40" waitingTime="2.00" speed="15.70" departed="5" arrived="0" entered="41" left="40" laneChangedFrom="0" laneChangedTo="0"/>
        <edge id="13" sampledSeconds="1061.93" traveltime="132.59" overlapTraveltime="133.31" density="0.89" occupancy="0.45" waitingTime="0.00" speed="8.97" departed="8" arrived="0" entered="0" left="8" laneChangedFrom="0" laneChangedTo="0"/>
        <edge id="14" sampledSeconds="2133.25" traveltime="78.94" overlapTraveltime="79.22" density="1.53" occupancy="0.77" waitingTime="0.00" speed="17.63" departed="5" arrived="7" entered="25" left="16" laneChangedFrom="0" laneChangedTo="0"/>
        <edge id="15" sampledSeconds="1918.70" traveltime="127.27" overlapTraveltime="127.72" density="0.96" occupancy="0.48" waitingTime="0.00" speed="15.62" departed="10" arrived="0" entered="6" left="14" laneChangedFrom="0" laneChangedTo="0"/>
        <edge id="16" sampledSeconds="2495.97" traveltime="63.82" overlapTraveltime="64.49" density="2.10" occupancy="1.05" waitingTime="0.00" speed="18.54" departed="5" arrived="0" entered="35" left="37" laneChangedFrom="0" laneChangedTo="0"/>
        <edge id="17" sampledSeconds="3338.34" traveltime="130.70" overlapTraveltime="131.56" density="1.68" occupancy="0.84" waitingTime="10.00" speed="15.18" departed="11" arrived="0" entered="17" left="24" laneChangedFrom="0" laneChangedTo="0"/>
        <edge id="18" sampledSeconds="1141.53" traveltime="48.68" overlapTraveltime="49.67" density="0.96" occupancy="0.48" waitingTime="12.00" speed="24.10" departed="4" arrived="0" entered="19" left="23" laneChangedFrom="0" laneChangedTo="0"/>
        <edge id="19" sampledSeconds="644.37" traveltime="66.70" overlapTraveltime="67.11" density="0.54" occupancy="0.27" waitingTime="0.00" speed="17.81" departed="10" arrived="0" entered="0" left="9" laneChangedFrom="0" laneChangedTo="0"/>
        <edge id="2" sampledSeconds="738.54" traveltime="61.18" overlapTraveltime="61.68" density="0.53" occupancy="0.27" waitingTime="0.00" speed="22.65" departed="7" arrived="0" entered="5" left="12" laneChangedFrom="0" laneChangedTo="0"/>
        <edge id="20" sampledSeconds="5004.46" traveltime="129.44" overlapTraveltime="129.82" density="2.51" occupancy="1.26" waitingTime="0.00" speed="15.38" departed="9" arrived="15" entered="33" left="20" laneChangedFrom="0" laneChangedTo="0"/>
        <edge id="21" sampledSeconds="10608.91" traveltime="255.88" overlapTraveltime="256.56" density="5.33" occupancy="2.66" waitingTime="0.00" speed="7.78" departed="4" arrived="0" entered="48" left="28" laneChangedFrom="0" laneChangedTo="0"/>
        <edge id="22" sampledSeconds="3517.80" traveltime="119.28" overlapTraveltime="119.77" density="2.95" occupancy="1.48" waitingTime="0.00" speed="9.98" departed="5" arrived="0" entered="27" left="27" laneChangedFrom="0" laneChangedTo="0"/>
        <edge id="23" sampledSeconds="3955.69" traveltime="131.20" overlapTraveltime="131.94" density="3.32" occupancy="1.66" waitingTime="0.00" speed="9.06" departed="6" arrived="0" entered="31" left="24" laneChangedFrom="0" laneChangedTo="0"/>
        <edge id="24" sampledSeconds="2594.15" traveltime="258.65" overlapTraveltime="259.81" density="1.30" occupancy="0.65" waitingTime="10.00" speed="7.68" departed="6" arrived="0" entered="4" left="10" laneChangedFrom="0" laneChangedTo="0"/>
        <edge id="25" sampledSeconds="2086.32" traveltime="226.62" overlapTraveltime="227.49" density="1.75" occupancy="0.88" waitingTime="0.00" speed="5.26" departed="8" arrived="0" entered="3" left="6" laneChangedFrom="0" laneChangedTo="0"/>
        <edge id="26" sampledSeconds="453.53" traveltime="226.89" overlapTraveltime="227.74" density="0.38" occupancy="0.19" waitingTime="0.00" speed="5.25" departed="2" arrived="0" entered="0" left="2" laneChangedFrom="0" laneChangedTo="0"/>
        <edge id="27" sampledSeconds="2790.51" traveltime="277.17" overlapTraveltime="277.90" density="1.56" occupancy="0.78" waitingTime="0.00" speed="6.46" departed="4" arrived="0" entered="9" left="8" laneChangedFrom="0" laneChangedTo="0"/>
        <edge id="28" sampledSeconds="4768.98" traveltime="346.92" overlapTraveltime="347.60" density="1.84" occupancy="0.92" waitingTime="0.00" speed="7.46" departed="11" arrived="0" entered="10" left="7" laneChangedFrom="0" laneChangedTo="0"/>
        <edge id="29" sampledSeconds="3086.60" traveltime="176.11" overlapTraveltime="177.00" density="1.56" occupancy="0.78" waitingTime="36.00" speed="11.23" departed="4" arrived="0" entered="14" left="16" laneChangedFrom="0" laneChangedTo="0"/>
        <edge id="3" sampledSeconds="3341.77" traveltime="222.56" overlapTraveltime="222.86" density="0.62" occupancy="0.31" waitingTime="0.00" speed="24.22" departed="3" arrived="5" entered="20" left="5" laneChangedFrom="0" laneChangedTo="0"/>
        <edge id="30" sampledSeconds="1138.47" traveltime="283.05" overlapTraveltime="283.74" density="0.49" occupancy="0.25" waitingTime="0.00" speed="8.17" departed="6" arrived="0" entered="1" left="2" laneChangedFrom="0" laneChangedTo="0"/>
        <edge id="31" sampledSeconds="1025.85" traveltime="231.06" overlapTraveltime="231.73" density="0.43" occupancy="0.21" waitingTime="0.00" speed="10.34" departed="4" arrived="0" entered="1" left="4" laneChangedFrom="0" laneChangedTo="0"/>
        <edge id="32" sampledSeconds="2367.83" traveltime="277.68" overlapTraveltime="278.37" density="1.32" occupancy="0.66" waitingTime="0.00" speed="6.45" departed="6" arrived="0" entered="3" left="8" laneChangedFrom="0" laneChangedTo="0"/>
        <edge id="33" sampledSeconds="2662.49" traveltime="115.75" overlapTraveltime="116.56" density="1.67" occupancy="0.84" waitingTime="9.00" speed="13.69" departed="4" arrived="0" entered="22" left="21" laneChangedFrom="0" laneChangedTo="0"/>
        <edge id="34" sampledSeconds="1384.80" traveltime="279.83" overlapTraveltime="280.51" density="0.53" occupancy="0.27" waitingTime="0.00" speed="9.25" departed="6" arrived="0" entered="0" left="4" laneChangedFrom="0" laneChangedTo="0"/>
        <edge id="35" sampledSeconds="2517.78" traveltime="95.05" overlapTraveltime="95.33" density="1.05" occupancy="0.53" waitingTime="0.00" speed="25.13" departed="7" arrived="0" entered="24" left="23" laneChangedFrom="0" laneChangedTo="0"/>
        <edge id="36" sampledSeconds="544.18" traveltime="115.46" overlapTraveltime="116.93" density="0.34" occupancy="0.17" waitingTime="1.00" speed="13.64" departed="4" arrived="0" entered="1" left="4" laneChangedFrom="0" laneChangedTo="0"/>
        <edge id="37" sampledSeconds="8273.47" traveltime="189.23" overlapTraveltime="189.49" density="1.53" occupancy="0.77" waitingTime="0.00" speed="28.48" departed="4" arrived="16" entered="48" left="21" laneChangedFrom="0" laneChangedTo="0"/>
        <edge id="38" sampledSeconds="4521.05" traveltime="189.83" overlapTraveltime="190.63" density="0.84" occupancy="0.42" waitingTime="7.00" speed="28.31" departed="5" arrived="0" entered="22" left="22" laneChangedFrom="0" laneChangedTo="0"/>
        <edge id="39" sampledSeconds="2832.44" traveltime="101.52" overlapTraveltime="102.42" density="1.78" occupancy="0.89" waitingTime="3.00" speed="15.59" departed="8" arrived="0" entered="21" left="27" laneChangedFrom="0" laneChangedTo="0"/>
        <edge id="4" sampledSeconds="1378.24" traveltime="80.88" overlapTraveltime="81.30" density="0.99" occupancy="0.50" waitingTime="0.00" speed="17.18" departed="13" arrived="0" entered="4" left="17" laneChangedFrom="0" laneChangedTo="0"/>
        <edge id="40" sampledSeconds="2757.92" traveltime="278.98" overlapTraveltime="279.79" density="1.06" occupancy="0.53" waitingTime="2.00" speed="9.28" departed="6" arrived="0" entered="6" left="9" laneChangedFrom="0" laneChangedTo="0"/>
        <edge id="41" sampledSeconds="3327.38" traveltime="198.08" overlapTraveltime="198.88" density="1.86" occupancy="0.93" waitingTime="0.00" speed="9.03" departed="9" arrived="0" entered="10" left="15" laneChangedFrom="0" laneChangedTo="0"/>
        <edge id="42" sampledSeconds="692.78" traveltime="129.64" overlapTraveltime="130.24" density="0.58" occupancy="0.29" waitingTime="0.00" speed="9.18" departed="7" arrived="0" entered="0" left="5" laneChangedFrom="0" laneChangedTo="0"/>
        <edge id="43" sampledSeconds="3107.45" traveltime="347.42" overlapTraveltime="348.41" density="1.20" occupancy="0.60" waitingTime="3.00" speed="7.44" departed="11" arrived="0" entered="0" left="7" laneChangedFrom="0" laneChangedTo="0"/>
        <edge id="44" sampledSeconds="1037.28" traveltime="198.32" overlapTraveltime="198.98" density="0.58" occupancy="0.29" waitingTime="0.00" speed="9.02" departed="5" arrived="0" entered="2" left="5" laneChangedFrom="0" laneChangedTo="0"/>
        <edge id="45" sampledSeconds="3983.48" traveltime="128.08" overlapTraveltime="128.46" density="2.00" occupancy="1.00" waitingTime="0.00" speed="15.53" departed="4" arrived="0" entered="31" left="28" laneChangedFrom="0" laneChangedTo="0"/>
        <edge id="46" sampledSeconds="2428.92" traveltime="71.36" overlapTraveltime="71.83" density="2.04" occupancy="1.02" waitingTime="0.00" speed="16.64" departed="5" arrived="0" entered="33" left="29" laneChangedFrom="0" laneChangedTo="0"/>
        <edge id="47" sampledSeconds="4991.43" traveltime="119.41" overlapTraveltime="120.18" density="4.19" occupancy="2.10" waitingTime="0.00" speed="9.95" departed="5" arrived="0" entered="39" left="37" laneChangedFrom="0" laneChangedTo="0"/>
        <edge id="48" sampledSeconds="2186.63" traveltime="173.51" overlapTraveltime="174.44" density="1.10" occupancy="0.55" waitingTime="3.00" speed="11.39" departed="9" arrived="0" entered="5" left="11" laneChangedFrom="0" laneChangedTo="0"/>
        <edge id="49" sampledSeconds="1703.71" traveltime="40.75" overlapTraveltime="41.11" density="1.43" occupancy="0.72" waitingTime="0.00" speed="29.02" departed="10" arrived="0" entered="32" left="41" laneChangedFrom="0" laneChangedTo="0"/>
        <edge id="5" sampledSeconds="1868.03" traveltime="58.56" overlapTraveltime="58.80" density="1.34" occupancy="0.67" waitingTime="0.00" speed="23.76" departed="6" arrived="9" entered="27" left="22" laneChangedFrom="0" laneChangedTo="0"/>
        <edge id="50" sampledSeconds="4062.98" traveltime="159.27" overlapTraveltime="160.02" density="2.04" occupancy="1.02" waitingTime="2.00" speed="12.46" departed="9" arrived="0" entered="17" left="25" laneChangedFrom="0" laneChangedTo="0"/>
        <edge id="51" sampledSeconds="615.33" traveltime="282.38" overlapTraveltime="283.09" density="0.27" occupancy="0.13" waitingTime="0.00" speed="8.18" departed="3" arrived="0" entered="0" left="2" laneChangedFrom="0" laneChangedTo="0"/>
        <edge id="52" sampledSeconds="1789.60" traveltime="40.66" overlapTraveltime="41.19" density="1.51" occupancy="0.75" waitingTime="2.00" speed="28.96" departed="10" arrived="0" entered="36" left="41" laneChangedFrom="0" laneChangedTo="0"/>
        <edge id="53" sampledSeconds="5064.63" traveltime="111.00" overlapTraveltime="111.55" density="3.64" occupancy="1.82" waitingTime="0.00" speed="12.52" departed="11" arrived="0" entered="39" left="39" laneChangedFrom="0" laneChangedTo="0"/>
        <edge id="54" sampledSeconds="1650.70" traveltime="48.74" overlapTraveltime="49.01" density="1.38" occupancy="0.69" waitingTime="0.00" speed="24.42" departed="4" arrived="17" entered="30" left="16" laneChangedFrom="0" laneChangedTo="0"/>
        <edge id="55" sampledSeconds="1582.07" traveltime="161.34" overlapTraveltime="162.32" density="0.80" occupancy="0.40" waitingTime="3.00" speed="12.28" departed="10" arrived="0" entered="1" left="9" laneChangedFrom="0" laneChangedTo="0"/>
        <edge id="56" sampledSeconds="7004.63" traveltime="215.56" overlapTraveltime="215.90" density="1.22" occupancy="0.61" waitingTime="0.00" speed="26.58" departed="9" arrived="9" entered="33" left="15" laneChangedFrom="0" laneChangedTo="0"/>
        <edge id="57" sampledSeconds="2922.29" traveltime="129.51" overlapTraveltime="130.24" density="1.47" occupancy="0.73" waitingTime="2.00" speed="15.32" departed="4" arrived="0" entered="21" left="20" laneChangedFrom="0" laneChangedTo="0"/>
        <edge id="58" sampledSeconds="3638.90" traveltime="110.42" overlapTraveltime="110.83" density="2.61" occupancy="1.31" waitingTime="0.00" speed="12.60" departed="7" arrived="0" entered="27" left="32" laneChangedFrom="0" laneChangedTo="0"/>
        <edge id="59" sampledSeconds="5119.69" traveltime="240.75" overlapTraveltime="241.21" density="1.84" occupancy="0.92" waitingTime="0.00" speed="11.53" departed="5" arrived="11" entered="23" left="3" laneChangedFrom="0" laneChangedTo="0"/>
        <edge id="6" sampledSeconds="1820.88" traveltime="94.73" overlapTraveltime="95.05" density="1.14" occupancy="0.57" waitingTime="0.00" speed="16.79" departed="7" arrived="0" entered="14" left="19" laneChangedFrom="0" laneChangedTo="0"/>
        <edge id="60" sampledSeconds="3818.56" traveltime="216.14" overlapTraveltime="216.66" density="0.67" occupancy="0.33" waitingTime="0.00" speed="26.48" departed="6" arrived="0" entered="14" left="16" laneChangedFrom="0" laneChangedTo="0"/>
        <edge id="61" sampledSeconds="1190.20" traveltime="243.71" overlapTraveltime="244.55" density="0.43" occupancy="0.21" waitingTime="2.00" speed="11.37" departed="4" arrived="0" entered="1" left="4" laneChangedFrom="0" laneChangedTo="0"/>
        <edge id="62" sampledSeconds="4060.45" traveltime="223.07" overlapTraveltime="223.92" density="2.05" occupancy="1.02" waitingTime="11.00" speed="8.88" departed="5" arrived="0" entered="15" left="17" laneChangedFrom="0" laneChangedTo="0"/>
        <edge id="63" sampledSeconds="1837.43" traveltime="217.86" overlapTraveltime="218.52" density="0.72" occupancy="0.36" waitingTime="0.00" speed="11.66" departed="5" arrived="0" entered="4" left="8" laneChangedFrom="0" laneChangedTo="0"/>
        <edge id="64" sampledSeconds="4979.20" traveltime="221.66" overlapTraveltime="222.24" density="2.51" occupancy="1.25" waitingTime="0.00" speed="8.95" departed="4" arrived="8" entered="23" left="8" laneChangedFrom="0" laneChangedTo="0"/>
        <edge id="65" sampledSeconds="3182.17" traveltime="126.67" overlapTraveltime="127.12" density="2.01" occupancy="1.00" waitingTime="0.00" speed="12.52" departed="11" arrived="0" entered="15" left="23" laneChangedFrom="0" laneChangedTo="0"/>
        <edge id="66" sampledSeconds="4391.82" traveltime="127.41" overlapTraveltime="127.79" density="2.45" occupancy="1.23" waitingTime="0.00" speed="14.05" departed="7" arrived="0" entered="30" left="30" laneChangedFrom="0" laneChangedTo="0"/>
        <edge id="67" sampledSeconds="1849.16" traveltime="71.26" overlapTraveltime="71.75" density="1.55" occupancy="0.78" waitingTime="0.00" speed="16.66" departed="8" arrived="0" entered="19" left="24" laneChangedFrom="0" laneChangedTo="0"/>
        <edge id="68" sampledSeconds="6718.94" traveltime="254.91" overlapTraveltime="255.51" density="2.64" occupancy="1.32" waitingTime="0.00" speed="9.97" departed="6" arrived="10" entered="26" left="8" laneChangedFrom="0" laneChangedTo="0"/>
        <edge id="69" sampledSeconds="1863.44" traveltime="60.11" overlapTraveltime="60.46" density="1.17" occupancy="0.59" waitingTime="0.00" speed="26.33" departed="8" arrived="0" entered="25" left="30" laneChangedFrom="0" laneChangedTo="0"/>
        <edge id="7" sampledSeconds="2914.26" traveltime="95.05" overlapTraveltime="95.26" density="1.22" occupancy="0.61" waitingTime="0.00" speed="25.15" departed="5" arrived="0" entered="26" left="30" laneChangedFrom="0" laneChangedTo="0"/>
        <edge id="70" sampledSeconds="949.84" traveltime="174.72" overlapTraveltime="175.39" density="0.53" occupancy="0.27" waitingTime="0.00" speed="10.24" departed="6" arrived="0" entered="0" left="5" laneChangedFrom="0" laneChangedTo="0"/>
        <edge id="71" sampledSeconds="944.66" traveltime="129.68" overlapTraveltime="130.29" density="0.79" occupancy="0.40" waitingTime="0.00" speed="9.18" departed="7" arrived="0" entered="1" left="7" laneChangedFrom="0" laneChangedTo="0"/>
        <edge id="72" sampledSeconds="2288.81" traveltime="173.81" overlapTraveltime="174.58" density="1.28" occupancy="0.64" waitingTime="8.00" speed="10.28" departed="6" arrived="0" entered="10" left="10" laneChangedFrom="0" laneChangedTo="0"/>
        <edge id="73" sampledSeconds="1800.35" traveltime="153.95" overlapTraveltime="154.57" density="1.13" occupancy="0.57" waitingTime="0.00" speed="10.32" departed="7" arrived="0" entered="7" left="10" laneChangedFrom="0" laneChangedTo="0"/>
        <edge id="74" sampledSeconds="4601.96" traveltime="100.43" overlapTraveltime="100.76" density="2.89" occupancy="1.45" waitingTime="0.00" speed="15.85" departed="5" arrived="18" entered="49" left="22" laneChangedFrom="0" laneChangedTo="0"/>
        <edge id="75" sampledSeconds="3002.12" traveltime="129.21" overlapTraveltime="129.99" density="1.68" occupancy="0.84" waitingTime="4.00" speed="13.81" departed="8" arrived="0" entered="17" left="21" laneChangedFrom="0" laneChangedTo="0"/>
        <edge id="76" sampledSeconds="1272.12" traveltime="154.86" overlapTraveltime="155.50" density="0.80" occupancy="0.40" waitingTime="0.00" speed="10.26" departed="8" arrived="0" entered="1" left="8" laneChangedFrom="0" laneChangedTo="0"/>
        <edge id="8" sampledSeconds="3364.48" traveltime="95.61" overlapTraveltime="96.26" density="2.12" occupancy="1.06" waitingTime="0.00" speed="16.58" departed="10" arrived="0" entered="26" left="32" laneChangedFrom="0" laneChangedTo="0"/>
        <edge id="9" sampledSeconds="2170.86" traveltime="84.88" overlapTraveltime="85.24" density="1.21" occupancy="0.61" waitingTime="0.00" speed="21.06" departed="6" arrived="0" entered="20" left="24" laneChangedFrom="0" laneChangedTo="0"/>
    </interval>
    <interval begin="1000.00" end="2000.00" id="2">
        <edge id="1" sampledSeconds="13859.90" traveltime="221.71" overlapTraveltime="221.97" density="2.57" occupancy="1.28" waitingTime="0.00" speed="24.32" departed="8" arrived="40" entered="59" left="18" laneChangedFrom="0" laneChangedTo="0"/>
        <edge id="10" sampledSeconds="2560.78" traveltime="231.52" overlapTraveltime="232.33" density="1.07" occupancy="0.54" waitingTime="2.00" speed="10.31" departed="11" arrived="0" entered="0" left="12" laneChangedFrom="0" laneChangedTo="0"/>
        <edge id="11" sampledSeconds="5031.77" traveltime="85.50" overlapTraveltime="85.89" density="2.81" occupancy="1.41" waitingTime="1.00" speed="20.90" departed="12" arrived="0" entered="48" left="56" laneChangedFrom="0" laneChangedTo="0"/>
        <edge id="12" sampledSeconds="9437.31" traveltime="126.76" overlapTraveltime="127.59" density="4.74" occupancy="2.37" waitingTime="7.00" speed="15.64" departed="4" arrived="0" entered="71" left="75" laneChangedFrom="0" laneChangedTo="0"/>
        <edge id="13" sampledSeconds="690.51" traveltime="133.15" overlapTraveltime="133.82" density="0.58" occupancy="0.29" waitingTime="0.00" speed="8.93" departed="6" arrived="0" entered="0" left="4" laneChangedFrom="0" laneChangedTo="0"/>
        <edge id="14" sampledSeconds="8063.84" traveltime="78.28" overlapTraveltime="78.59" density="5.79" occupancy="2.90" waitingTime="0.00" speed="17.78" departed="8" arrived="43" entered="98" left="56" laneChangedFrom="0" laneChangedTo="0"/>
        <edge id="15" sampledSeconds="3431.58" traveltime="126.34" overlapTraveltime="126.94" density="1.72" occupancy="0.86" waitingTime="1.00" speed="15.72" departed="7" arrived="0" entered="20" left="27" laneChangedFrom="0" laneChangedTo="0"/>
        <edge id="16" sampledSeconds="3187.07" traveltime="63.71" overlapTraveltime="64.43" density="2.68" occupancy="1.34" waitingTime="0.00" speed="18.55" departed="3" arrived="0" entered="46" left="50" laneChangedFrom="0" laneChangedTo="0"/>
        <edge id="17" sampledSeconds="3799.28" traveltime="130.34" overlapTraveltime="131.15" density="1.91" occupancy="0.95" waitingTime="12.00" speed="15.23" departed="8" arrived="0" entered="20" left="30" laneChangedFrom="0" laneChangedTo="0"/>
        <edge id="18" sampledSeconds="1856.01" traveltime="49.29" overlapTraveltime="49.96" density="1.56" occupancy="0.78" waitingTime="2.00" speed="23.96" departed="8" arrived="0" entered="31" left="36" laneChangedFrom="0" laneChangedTo="0"/>
        <edge id="19" sampledSeconds="4469.61" traveltime="63.23" overlapTraveltime="63.62" density="3.75" occupancy="1.88" waitingTime="0.00" speed="18.79" departed="3" arrived="0" entered="69" left="68" laneChangedFrom="0" laneChangedTo="0"/>
        <edge id="2" sampledSeconds="673.09" traveltime="59.74" overlapTraveltime="61.27" density="0.48" occupancy="0.24" waitingTime="8.00" speed="22.80" departed="4" arrived="0" entered="7" left="11" laneChangedFrom="0" laneChangedTo="0"/>
        <edge id="20" sampledSeconds="9242.91" traveltime="128.56" overlapTraveltime="128.90" density="4.64" occupancy="2.32" waitingTime="0.00" speed="15.49" departed="12" arrived="40" entered="59" left="34" laneChangedFrom="0" laneChangedTo="0"/>
        <edge id="21" sampledSeconds="6588.76" traveltime="256.82" overlapTraveltime="257.59" density="3.31" occupancy="1.66" waitingTime="2.00" speed="7.75" departed="7" arrived="0" entered="8" left="38" laneChangedFrom="0" laneChangedTo="0"/>
        <edge id="22" sampledSeconds="5014.52" traveltime="119.65" overlapTraveltime="120.25" density="4.21" occupancy="2.11" waitingTime="0.00" speed="9.94" departed="14" arrived="0" entered="28" left="43" laneChangedFrom="0" laneChangedTo="0"/>
        <edge id="23" sampledSeconds="6347.86" traveltime="131.94" overlapTraveltime="132.80" density="5.33" occupancy="2.67" waitingTime="15.00" speed="9.00" departed="3" arrived="0" entered="39" left="53" laneChangedFrom="0" laneChangedTo="0"/>
        <edge id="24" sampledSeconds="3876.59" traveltime="259.26" overlapTraveltime="260.20" density="1.95" occupancy="0.97" waitingTime="24.00" speed="7.67" departed="11" arrived="0" entered="5" left="13" laneChangedFrom="0" laneChangedTo="0"/>
        <edge id="25" sampledSeconds="2875.65" traveltime="227.64" overlapTraveltime="228.78" density="2.42" occupancy="1.21" waitingTime="15.00" speed="5.23" departed="7" arrived="0" entered="5" left="14" laneChangedFrom="0" laneChangedTo="0"/>
        <edge id="26" sampledSeconds="1615.54" traveltime="226.61" overlapTraveltime="227.50" density="1.36" occupancy="0.68" waitingTime="0.00" speed="5.26" departed="8" arrived="0" entered="0" left="7" laneChangedFrom="0" laneChangedTo="0"/>
        <edge id="27" sampledSeconds="3646.97" traveltime="277.33" overlapTraveltime="278.04" density="2.04" occupancy="1.02" waitingTime="0.00" speed="6.46" departed="4" arrived="0" entered="10" left="13" laneChangedFrom="0" laneChangedTo="0"/>
        <edge id="28" sampledSeconds="8004.00" traveltime="345.09" overlapTraveltime="345.74" density="3.09" occupancy="1.55" waitingTime="0.00" speed="7.50" departed="6" arrived="0" entered="14" left="28" laneChangedFrom="0" laneChangedTo="0"/>
        <edge id="29" sampledSeconds="5825.67" traveltime="174.19" overlapTraveltime="175.15" density="2.94" occupancy="1.47" waitingTime="24.00" speed="11.34" departed="10" arrived="0" entered="27" left="31" laneChangedFrom="0" laneChangedTo="0"/>
        <edge id="3" sampledSeconds="13721.81" traveltime="221.39" overlapTraveltime="221.86" density="2.54" occupancy="1.27" waitingTime="4.00" speed="24.33" departed="6" arrived="43" entered="56" left="18" laneChangedFrom="0" laneChangedTo="0"/>
        <edge id="30" sampledSeconds="2973.13" traveltime="282.95" overlapTraveltime="283.87" density="1.29" occupancy="0.64" waitingTime="4.00" speed="8.16" departed="9" arrived="0" entered="0" left="12" laneChangedFrom="0" laneChangedTo="0"/>
        <edge id="31" sampledSeconds="3462.60" traveltime="230.45" overlapTraveltime="231.15" density="1.45" occupancy="0.72" waitingTime="0.00" speed="10.36" departed="9" arrived="0" entered="7" left="14" laneChangedFrom="0" laneChangedTo="0"/>
        <edge id="32" sampledSeconds="3551.71" traveltime="277.33" overlapTraveltime="278.09" density="1.98" occupancy="0.99" waitingTime="0.00" speed="6.46" departed="8" arrived="0" entered="7" left="12" laneChangedFrom="0" laneChangedTo="0"/>
        <edge id="33" sampledSeconds="3676.17" traveltime="115.23" overlapTraveltime="116.12" density="2.31" occupancy="1.16" waitingTime="16.00" speed="13.74" departed="3" arrived="0" entered="28" left="31" laneChangedFrom="0" laneChangedTo="0"/>
        <edge id="34" sampledSeconds="1662.52" traveltime="278.54" overlapTraveltime="279.29" density="0.64" occupancy="0.32" waitingTime="0.00" speed="9.29" departed="4" arrived="0" entered="3" left="6" laneChangedFrom="0" laneChangedTo="0"/>
        <edge id="35" sampledSeconds="4552.01" traveltime="93.33" overlapTraveltime="93.56" density="1.90" occupancy="0.95" waitingTime="0.00" speed="25.60" departed="5" arrived="0" entered="41" left="50" laneChangedFrom="0" laneChangedTo="0"/>
        <edge id="36" sampledSeconds="1264.87" traveltime="115.55" overlapTraveltime="116.09" density="0.80" occupancy="0.40" waitingTime="0.00" speed="13.74" departed="9" arrived="0" entered="3" left="9" laneChangedFrom="0" laneChangedTo="0"/>
        <edge id="37" sampledSeconds="13316.66" traveltime="188.84" overlapTraveltime="189.05" density="2.47" occupancy="1.23" waitingTime="0.00" speed="28.55" departed="5" arrived="49" entered="63" left="24" laneChangedFrom="0" laneChangedTo="0"/>
        <edge id="38" sampledSeconds="9106.65" traveltime="188.90" overlapTraveltime="189.34" density="1.69" occupancy="0.84" waitingTime="0.00" speed="28.50" departed="3" arrived="0" entered="45" left="47" laneChangedFrom="0" laneChangedTo="0"/>
        <edge id="39" sampledSeconds="3254.77" traveltime="100.53" overlapTraveltime="101.51" density="2.04" occupancy="1.02" waitingTime="10.00" speed="15.73" departed="5" arrived="0" entered="27" left="32" laneChangedFrom="0" laneChangedTo="0"/>
        <edge id="4" sampledSeconds="1749.74" traveltime="78.72" overlapTraveltime="79.16" density="1.26" occupancy="0.63" waitingTime="0.00" speed="17.65" departed="5" arrived="0" entered="18" left="21" laneChangedFrom="0" laneChangedTo="0"/>
        <edge id="40" sampledSeconds="3040.06" traveltime="278.55" overlapTraveltime="279.25" density="1.17" occupancy="0.59" waitingTime="0.00" speed="9.29" departed="5" arrived="0" entered="7" left="11" laneChangedFrom="0" laneChangedTo="0"/>
        <edge id="41" sampledSeconds="4608.62" traveltime="197.69" overlapTraveltime="198.51" density="2.57" occupancy="1.29" waitingTime="4.00" speed="9.04" departed="10" arrived="0" entered="12" left="22" laneChangedFrom="0" laneChangedTo="0"/>
        <edge id="42" sampledSeconds="1513.58" traveltime="129.62" overlapTraveltime="130.34" density="1.27" occupancy="0.64" waitingTime="0.00" speed="9.17" departed="9" arrived="0" entered="1" left="12" laneChangedFrom="0" laneChangedTo="0"/>
        <edge id="43" sampledSeconds="2717.78" traveltime="347.98" overlapTraveltime="348.84" density="1.05" occupancy="0.53" waitingTime="8.00" speed="7.43" departed="8" arrived="0" entered="0" left="8" laneChangedFrom="0" laneChangedTo="0"/>
        <edge id="44" sampledSeconds="1469.62" traveltime="198.06" overlapTraveltime="198.69" density="0.82" occupancy="0.41" waitingTime="0.00" speed="9.04" departed="6" arrived="0" entered="0" left="7" laneChangedFrom="0" laneChangedTo="0"/>
        <edge id="45" sampledSeconds="6709.08" traveltime="127.89" overlapTraveltime="128.28" density="3.37" occupancy="1.69" waitingTime="0.00" speed="15.56" departed="3" arrived="0" entered="50" left="52" laneChangedFrom="0" laneChangedTo="0"/>