<?xml version="1.0" encoding="UTF-8"?>

<!-- generated on 02/12/18 16:29:24 by SUMO Version 0.30.0
<?xml version="1.0" encoding="UTF-8"?>

<configuration xmlns:xsi="http://www.w3.org/2001/XMLSchema-instance" xsi:noNamespaceSchemaLocation="http://sumo.dlr.de/xsd/sumoConfiguration.xsd">

    <input>
        <net-file value="../config/../network/sf_net.net.xml"/>
        <route-files value="../config/../trips/trip.xml"/>
        <additional-files value="../config/additional.xml"/>
        <weight-files value="../config/link_weights_combined_alpha1beta1.xml"/>
        <weight-attribute value="effort"/>
    </input>

    <output>
        <summary-output value="../config/../output/summary.xml"/>
    </output>

    <processing>
        <time-to-teleport value="300"/>
    </processing>

    <report>
        <no-warnings value="true"/>
        <log value="../config/../output/report.xml"/>
    </report>

    <traci_server>
        <remote-port value="33143"/>
    </traci_server>

</configuration>
-->

<meandata xmlns:xsi="http://www.w3.org/2001/XMLSchema-instance" xsi:noNamespaceSchemaLocation="http://sumo.dlr.de/xsd/meandata_file.xsd">
    <interval begin="0.00" end="1000.00" id="1">
        <edge id="1" sampledSeconds="4772.35" traveltime="222.14" overlapTraveltime="222.42" density="0.88" occupancy="0.44" waitingTime="0.00" speed="24.27" departed="6" arrived="9" entered="22" left="6" laneChangedFrom="0" laneChangedTo="0"/>
        <edge id="10" sampledSeconds="1645.75" traveltime="231.85" overlapTraveltime="232.44" density="0.69" occupancy="0.34" waitingTime="0.00" speed="10.31" departed="8" arrived="0" entered="0" left="5" laneChangedFrom="0" laneChangedTo="0"/>
        <edge id="11" sampledSeconds="2955.38" traveltime="84.43" overlapTraveltime="84.74" density="1.65" occupancy="0.83" waitingTime="0.00" speed="21.19" departed="4" arrived="0" entered="33" left="31" laneChangedFrom="0" laneChangedTo="0"/>
        <edge id="12" sampledSeconds="5079.92" traveltime="126.68" overlapTraveltime="127.44" density="2.55" occupancy="1.28" waitingTime="2.00" speed="15.66" departed="5" arrived="0" entered="36" left="39" laneChangedFrom="0" laneChangedTo="0"/>
        <edge id="13" sampledSeconds="1073.59" traveltime="133.85" overlapTraveltime="134.77" density="0.90" occupancy="0.45" waitingTime="2.00" speed="8.87" departed="8" arrived="0" entered="0" left="8" laneChangedFrom="0" laneChangedTo="0"/>
        <edge id="14" sampledSeconds="3613.27" traveltime="78.22" overlapTraveltime="78.49" density="2.60" occupancy="1.30" waitingTime="0.00" speed="17.80" departed="5" arrived="18" entered="46" left="23" laneChangedFrom="0" laneChangedTo="0"/>
        <edge id="15" sampledSeconds="4309.14" traveltime="126.18" overlapTraveltime="126.58" density="2.16" occupancy="1.08" waitingTime="0.00" speed="15.76" departed="10" arrived="0" entered="27" left="32" laneChangedFrom="0" laneChangedTo="0"/>
        <edge id="16" sampledSeconds="2624.21" traveltime="63.87" overlapTraveltime="64.51" density="2.20" occupancy="1.10" waitingTime="0.00" speed="18.53" departed="5" arrived="0" entered="37" left="39" laneChangedFrom="0" laneChangedTo="0"/>
        <edge id="17" sampledSeconds="3487.04" traveltime="130.27" overlapTraveltime="130.94" density="1.75" occupancy="0.88" waitingTime="0.00" speed="15.25" departed="11" arrived="0" entered="19" left="25" laneChangedFrom="0" laneChangedTo="0"/>
        <edge id="18" sampledSeconds="1129.16" traveltime="48.68" overlapTraveltime="49.13" density="0.95" occupancy="0.47" waitingTime="1.00" speed="24.36" departed="4" arrived="0" entered="19" left="23" laneChangedFrom="0" laneChangedTo="0"/>
        <edge id="19" sampledSeconds="3743.68" traveltime="63.96" overlapTraveltime="64.51" density="3.14" occupancy="1.57" waitingTime="0.00" speed="18.53" departed="10" arrived="0" entered="50" left="55" laneChangedFrom="0" laneChangedTo="0"/>
        <edge id="2" sampledSeconds="802.17" traveltime="61.13" overlapTraveltime="61.83" density="0.58" occupancy="0.29" waitingTime="0.00" speed="22.60" departed="7" arrived="0" entered="6" left="13" laneChangedFrom="0" laneChangedTo="0"/>
        <edge id="20" sampledSeconds="5048.56" traveltime="129.64" overlapTraveltime="130.03" density="2.53" occupancy="1.27" waitingTime="2.00" speed="15.36" departed="9" arrived="15" entered="34" left="20" laneChangedFrom="0" laneChangedTo="0"/>
        <edge id="21" sampledSeconds="910.95" traveltime="257.87" overlapTraveltime="258.54" density="0.46" occupancy="0.23" waitingTime="0.00" speed="7.72" departed="4" arrived="0" entered="0" left="3" laneChangedFrom="0" laneChangedTo="0"/>
        <edge id="22" sampledSeconds="3336.21" traveltime="119.38" overlapTraveltime="119.85" density="2.80" occupancy="1.40" waitingTime="0.00" speed="9.97" departed="5" arrived="0" entered="25" left="26" laneChangedFrom="0" laneChangedTo="0"/>
        <edge id="23" sampledSeconds="1505.59" traveltime="132.30" overlapTraveltime="133.07" density="1.26" occupancy="0.63" waitingTime="1.00" speed="8.98" departed="6" arrived="0" entered="7" left="10" laneChangedFrom="0" laneChangedTo="0"/>
        <edge id="24" sampledSeconds="2583.54" traveltime="257.69" overlapTraveltime="258.75" density="1.30" occupancy="0.65" waitingTime="7.00" speed="7.71" departed="6" arrived="0" entered="4" left="10" laneChangedFrom="0" laneChangedTo="0"/>
        <edge id="25" sampledSeconds="1855.19" traveltime="225.97" overlapTraveltime="226.87" density="1.56" occupancy="0.78" waitingTime="0.00" speed="5.27" departed="8" arrived="0" entered="2" left="5" laneChangedFrom="0" laneChangedTo="0"/>
        <edge id="26" sampledSeconds="454.91" traveltime="227.59" overlapTraveltime="228.43" density="0.38" occupancy="0.19" waitingTime="0.00" speed="5.23" departed="2" arrived="0" entered="0" left="2" laneChangedFrom="0" laneChangedTo="0"/>
        <edge id="27" sampledSeconds="2314.47" traveltime="277.88" overlapTraveltime="278.64" density="1.29" occupancy="0.65" waitingTime="0.00" speed="6.44" departed="4" arrived="0" entered="8" left="6" laneChangedFrom="0" laneChangedTo="0"/>
        <edge id="28" sampledSeconds="3808.95" traveltime="346.48" overlapTraveltime="347.13" density="1.47" occupancy="0.74" waitingTime="0.00" speed="7.47" departed="11" arrived="0" entered="7" left="7" laneChangedFrom="0" laneChangedTo="0"/>
        <edge id="29" sampledSeconds="3648.48" traveltime="177.73" overlapTraveltime="178.50" density="1.84" occupancy="0.92" waitingTime="74.00" speed="11.13" departed="4" arrived="0" entered="17" left="19" laneChangedFrom="0" laneChangedTo="0"/>
        <edge id="3" sampledSeconds="4436.06" traveltime="221.61" overlapTraveltime="221.82" density="0.82" occupancy="0.41" waitingTime="0.00" speed="24.34" departed="3" arrived="10" entered="26" left="2" laneChangedFrom="0" laneChangedTo="0"/>
        <edge id="30" sampledSeconds="859.61" traveltime="284.85" overlapTraveltime="285.78" density="0.37" occupancy="0.19" waitingTime="3.00" speed="8.11" departed="6" arrived="0" entered="0" left="1" laneChangedFrom="0" laneChangedTo="0"/>
        <edge id="31" sampledSeconds="1255.57" traveltime="230.67" overlapTraveltime="231.34" density="0.53" occupancy="0.26" waitingTime="0.00" speed="10.35" departed="4" arrived="0" entered="2" left="5" laneChangedFrom="0" laneChangedTo="0"/>
        <edge id="32" sampledSeconds="2376.52" traveltime="278.64" overlapTraveltime="279.34" density="1.33" occupancy="0.66" waitingTime="0.00" speed="6.43" departed="6" arrived="0" entered="3" left="8" laneChangedFrom="0" laneChangedTo="0"/>
        <edge id="33" sampledSeconds="1949.56" traveltime="114.95" overlapTraveltime="115.70" density="1.23" occupancy="0.61" waitingTime="1.00" speed="13.79" departed="4" arrived="0" entered="16" left="15" laneChangedFrom="0" laneChangedTo="0"/>
        <edge id="34" sampledSeconds="2379.76" traveltime="278.54" overlapTraveltime="279.16" density="0.92" occupancy="0.46" waitingTime="0.00" speed="9.30" departed="6" arrived="0" entered="4" left="7" laneChangedFrom="0" laneChangedTo="0"/>
        <edge id="35" sampledSeconds="2452.90" traveltime="94.88" overlapTraveltime="95.14" density="1.03" occupancy="0.51" waitingTime="0.00" speed="25.18" departed="7" arrived="0" entered="24" left="22" laneChangedFrom="0" laneChangedTo="0"/>
        <edge id="36" sampledSeconds="804.88" traveltime="114.65" overlapTraveltime="115.19" density="0.51" occupancy="0.25" waitingTime="0.00" speed="13.85" departed="4" arrived="0" entered="3" left="7" laneChangedFrom="0" laneChangedTo="0"/>
        <edge id="37" sampledSeconds="7619.06" traveltime="188.86" overlapTraveltime="189.09" density="1.41" occupancy="0.71" waitingTime="0.00" speed="28.54" departed="4" arrived="18" entered="42" left="16" laneChangedFrom="0" laneChangedTo="0"/>
        <edge id="38" sampledSeconds="4833.76" traveltime="189.70" overlapTraveltime="190.23" density="0.90" occupancy="0.45" waitingTime="3.00" speed="28.37" departed="5" arrived="0" entered="23" left="24" laneChangedFrom="0" laneChangedTo="0"/>
        <edge id="39" sampledSeconds="2295.60" traveltime="101.24" overlapTraveltime="101.99" density="1.44" occupancy="0.72" waitingTime="0.00" speed="15.66" departed="8" arrived="0" entered="15" left="22" laneChangedFrom="0" laneChangedTo="0"/>
        <edge id="4" sampledSeconds="1291.75" traveltime="80.65" overlapTraveltime="80.97" density="0.93" occupancy="0.46" waitingTime="0.00" speed="17.25" departed="13" arrived="0" entered="3" left="16" laneChangedFrom="0" laneChangedTo="0"/>
        <edge id="40" sampledSeconds="2306.02" traveltime="279.16" overlapTraveltime="279.84" density="0.89" occupancy="0.45" waitingTime="0.00" speed="9.27" departed="6" arrived="0" entered="6" left="7" laneChangedFrom="0" laneChangedTo="0"/>
        <edge id="41" sampledSeconds="3718.28" traveltime="197.63" overlapTraveltime="198.48" density="2.08" occupancy="1.04" waitingTime="2.00" speed="9.05" departed="9" arrived="0" entered="12" left="17" laneChangedFrom="0" laneChangedTo="0"/>
        <edge id="42" sampledSeconds="692.93" traveltime="129.76" overlapTraveltime="130.37" density="0.58" occupancy="0.29" waitingTime="0.00" speed="9.17" departed="7" arrived="0" entered="0" left="5" laneChangedFrom="0" laneChangedTo="0"/>
        <edge id="43" sampledSeconds="3109.59" traveltime="347.19" overlapTraveltime="347.97" density="1.20" occupancy="0.60" waitingTime="1.00" speed="7.45" departed="11" arrived="0" entered="0" left="7" laneChangedFrom="0" laneChangedTo="0"/>
        <edge id="44" sampledSeconds="1120.91" traveltime="198.11" overlapTraveltime="198.86" density="0.63" occupancy="0.31" waitingTime="0.00" speed="9.03" departed="5" arrived="0" entered="4" left="5" laneChangedFrom="0" laneChangedTo="0"/>
        <edge id="45" sampledSeconds="4416.43" traveltime="128.02" overlapTraveltime="128.40" density="2.22" occupancy="1.11" waitingTime="0.00" speed="15.54" departed="4" arrived="0" entered="34" left="31" laneChangedFrom="0" laneChangedTo="0"/>
        <edge id="46" sampledSeconds="2629.25" traveltime="71.53" overlapTraveltime="72.10" density="2.21" occupancy="1.10" waitingTime="0.00" speed="16.58" departed="5" arrived="0" entered="36" left="32" laneChangedFrom="0" laneChangedTo="0"/>
        <edge id="47" sampledSeconds="4851.88" traveltime="119.21" overlapTraveltime="119.76" density="4.08" occupancy="2.04" waitingTime="1.00" speed="9.98" departed="5" arrived="0" entered="39" left="35" laneChangedFrom="0" laneChangedTo="0"/>
        <edge id="48" sampledSeconds="1935.49" traveltime="173.72" overlapTraveltime="175.95" density="0.98" occupancy="0.49" waitingTime="10.00" speed="11.29" departed="9" arrived="0" entered="3" left="10" laneChangedFrom="0" laneChangedTo="0"/>
        <edge id="49" sampledSeconds="2075.71" traveltime="40.73" overlapTraveltime="41.09" density="1.75" occupancy="0.87" waitingTime="0.00" speed="29.03" departed="10" arrived="0" entered="41" left="50" laneChangedFrom="0" laneChangedTo="0"/>
        <edge id="5" sampledSeconds="2235.51" traveltime="58.90" overlapTraveltime="59.16" density="1.61" occupancy="0.80" waitingTime="0.00" speed="23.61" departed="6" arrived="11" entered="33" left="26" laneChangedFrom="0" laneChangedTo="0"/>
        <edge id="50" sampledSeconds="4378.31" traveltime="159.53" overlapTraveltime="160.24" density="2.20" occupancy="1.10" waitingTime="10.00" speed="12.44" departed="9" arrived="0" entered="19" left="26" laneChangedFrom="0" laneChangedTo="0"/>
        <edge id="51" sampledSeconds="615.37" traveltime="282.88" overlapTraveltime="283.54" density="0.27" occupancy="0.13" waitingTime="0.00" speed="8.17" departed="3" arrived="0" entered="0" left="2" laneChangedFrom="0" laneChangedTo="0"/>
        <edge id="52" sampledSeconds="1978.09" traveltime="40.52" overlapTraveltime="41.10" density="1.67" occupancy="0.83" waitingTime="8.00" speed="29.03" departed="10" arrived="0" entered="41" left="45" laneChangedFrom="0" laneChangedTo="0"/>
        <edge id="53" sampledSeconds="5906.19" traveltime="110.88" overlapTraveltime="111.41" density="4.24" occupancy="2.12" waitingTime="0.00" speed="12.54" departed="11" arrived="0" entered="47" left="45" laneChangedFrom="0" laneChangedTo="0"/>
        <edge id="54" sampledSeconds="1754.43" traveltime="48.58" overlapTraveltime="48.85" density="1.47" occupancy="0.74" waitingTime="0.00" speed="24.50" departed="4" arrived="17" entered="32" left="18" laneChangedFrom="0" laneChangedTo="0"/>
        <edge id="55" sampledSeconds="2052.16" traveltime="160.41" overlapTraveltime="161.28" density="1.03" occupancy="0.52" waitingTime="4.00" speed="12.36" departed="10" arrived="0" entered="4" left="12" laneChangedFrom="0" laneChangedTo="0"/>
        <edge id="56" sampledSeconds="6317.53" traveltime="215.45" overlapTraveltime="215.75" density="1.10" occupancy="0.55" waitingTime="0.00" speed="26.59" departed="9" arrived="9" entered="29" left="12" laneChangedFrom="0" laneChangedTo="0"/>
        <edge id="57" sampledSeconds="3079.91" traveltime="130.13" overlapTraveltime="130.95" density="1.55" occupancy="0.77" waitingTime="15.00" speed="15.24" departed="4" arrived="0" entered="23" left="22" laneChangedFrom="0" laneChangedTo="0"/>
        <edge id="58" sampledSeconds="4198.18" traveltime="110.45" overlapTraveltime="110.85" density="3.02" occupancy="1.51" waitingTime="0.00" speed="12.60" departed="7" arrived="0" entered="32" left="37" laneChangedFrom="0" laneChangedTo="0"/>
        <edge id="59" sampledSeconds="5137.93" traveltime="240.68" overlapTraveltime="241.15" density="1.85" occupancy="0.93" waitingTime="0.00" speed="11.53" departed="5" arrived="11" entered="24" left="3" laneChangedFrom="0" laneChangedTo="0"/>
        <edge id="6" sampledSeconds="1918.58" traveltime="94.80" overlapTraveltime="95.12" density="1.21" occupancy="0.60" waitingTime="0.00" speed="16.77" departed="7" arrived="0" entered="15" left="20" laneChangedFrom="0" laneChangedTo="0"/>
        <edge id="60" sampledSeconds="3977.17" traveltime="216.10" overlapTraveltime="216.38" density="0.69" occupancy="0.35" waitingTime="0.00" speed="26.52" departed="6" arrived="0" entered="16" left="16" laneChangedFrom="0" laneChangedTo="0"/>
        <edge id="61" sampledSeconds="943.96" traveltime="243.38" overlapTraveltime="243.95" density="0.34" occupancy="0.17" waitingTime="0.00" speed="11.40" departed="4" arrived="0" entered="0" left="3" laneChangedFrom="0" laneChangedTo="0"/>
        <edge id="62" sampledSeconds="3437.02" traveltime="222.34" overlapTraveltime="223.20" density="1.73" occupancy="0.87" waitingTime="5.00" speed="8.91" departed="5" arrived="0" entered="11" left="15" laneChangedFrom="0" laneChangedTo="0"/>
        <edge id="63" sampledSeconds="1186.48" traveltime="218.36" overlapTraveltime="219.02" density="0.47" occupancy="0.23" waitingTime="0.00" speed="11.63" departed="5" arrived="0" entered="1" left="5" laneChangedFrom="0" laneChangedTo="0"/>
        <edge id="64" sampledSeconds="4833.84" traveltime="221.45" overlapTraveltime="222.03" density="2.44" occupancy="1.22" waitingTime="0.00" speed="8.96" departed="4" arrived="8" entered="24" left="7" laneChangedFrom="0" laneChangedTo="0"/>
        <edge id="65" sampledSeconds="2954.76" traveltime="126.81" overlapTraveltime="127.30" density="1.86" occupancy="0.93" waitingTime="0.00" speed="12.51" departed="11" arrived="0" entered="13" left="22" laneChangedFrom="0" laneChangedTo="0"/>
        <edge id="66" sampledSeconds="4104.46" traveltime="127.38" overlapTraveltime="127.76" density="2.29" occupancy="1.15" waitingTime="0.00" speed="14.05" departed="7" arrived="0" entered="27" left="29" laneChangedFrom="0" laneChangedTo="0"/>
        <edge id="67" sampledSeconds="2127.74" traveltime="71.01" overlapTraveltime="71.46" density="1.79" occupancy="0.89" waitingTime="0.00" speed="16.73" departed="8" arrived="0" entered="23" left="28" laneChangedFrom="0" laneChangedTo="0"/>
        <edge id="68" sampledSeconds="5719.62" traveltime="254.74" overlapTraveltime="255.35" density="2.25" occupancy="1.12" waitingTime="3.00" speed="9.98" departed="6" arrived="10" entered="22" left="6" laneChangedFrom="0" laneChangedTo="0"/>
        <edge id="69" sampledSeconds="1934.73" traveltime="60.35" overlapTraveltime="60.72" density="1.22" occupancy="0.61" waitingTime="0.00" speed="26.22" departed="8" arrived="0" entered="26" left="31" laneChangedFrom="0" laneChangedTo="0"/>
        <edge id="7" sampledSeconds="3005.14" traveltime="95.10" overlapTraveltime="95.35" density="1.26" occupancy="0.63" waitingTime="0.00" speed="25.12" departed="5" arrived="0" entered="27" left="30" laneChangedFrom="0" laneChangedTo="0"/>
        <edge id="70" sampledSeconds="948.83" traveltime="174.40" overlapTraveltime="175.18" density="0.53" occupancy="0.26" waitingTime="0.00" speed="10.25" departed="6" arrived="0" entered="0" left="5" laneChangedFrom="0" laneChangedTo="0"/>
        <edge id="71" sampledSeconds="816.50" traveltime="130.03" overlapTraveltime="130.67" density="0.69" occupancy="0.34" waitingTime="0.00" speed="9.15" departed="7" arrived="0" entered="0" left="6" laneChangedFrom="0" laneChangedTo="0"/>
        <edge id="72" sampledSeconds="2456.70" traveltime="173.20" overlapTraveltime="173.95" density="1.37" occupancy="0.69" waitingTime="3.00" speed="10.32" departed="6" arrived="0" entered="11" left="12" laneChangedFrom="0" laneChangedTo="0"/>
        <edge id="73" sampledSeconds="1649.84" traveltime="154.20" overlapTraveltime="154.91" density="1.04" occupancy="0.52" waitingTime="0.00" speed="10.30" departed="7" arrived="0" entered="6" left="9" laneChangedFrom="0" laneChangedTo="0"/>
        <edge id="74" sampledSeconds="4565.93" traveltime="100.37" overlapTraveltime="100.70" density="2.87" occupancy="1.43" waitingTime="0.00" speed="15.86" departed="5" arrived="18" entered="47" left="22" laneChangedFrom="0" laneChangedTo="0"/>
        <edge id="75" sampledSeconds="2513.90" traveltime="129.00" overlapTraveltime="129.66" density="1.40" occupancy="0.70" waitingTime="0.00" speed="13.85" departed="8" arrived="0" entered="13" left="18" laneChangedFrom="0" laneChangedTo="0"/>
        <edge id="76" sampledSeconds="1119.20" traveltime="155.62" overlapTraveltime="156.34" density="0.70" occupancy="0.35" waitingTime="0.00" speed="10.21" departed="8" arrived="0" entered="0" left="7" laneChangedFrom="0" laneChangedTo="0"/>
        <edge id="8" sampledSeconds="3999.69" traveltime="95.43" overlapTraveltime="96.19" density="2.51" occupancy="1.26" waitingTime="1.00" speed="16.59" departed="10" arrived="0" entered="33" left="40" laneChangedFrom="0" laneChangedTo="0"/>
        <edge id="9" sampledSeconds="2429.72" traveltime="84.91" overlapTraveltime="85.38" density="1.36" occupancy="0.68" waitingTime="1.00" speed="21.03" departed="6" arrived="0" entered="23" left="27" laneChangedFrom="0" laneChangedTo="0"/>
    </interval>
    <interval begin="1000.00" end="2000.00" id="2">
        <edge id="1" sampledSeconds="11233.51" traveltime="221.29" overlapTraveltime="221.51" density="2.08" occupancy="1.04" waitingTime="0.00" speed="24.37" departed="8" arrived="40" entered="43" left="10" laneChangedFrom="0" laneChangedTo="0"/>
        <edge id="10" sampledSeconds="2558.49" traveltime="231.43" overlapTraveltime="232.08" density="1.07" occupancy="0.54" waitingTime="0.00" speed="10.32" departed="11" arrived="0" entered="0" left="12" laneChangedFrom="0" laneChangedTo="0"/>
        <edge id="11" sampledSeconds="5500.68" traveltime="85.02" overlapTraveltime="85.52" density="3.07" occupancy="1.54" waitingTime="9.00" speed="20.99" departed="12" arrived="0" entered="54" left="64" laneChangedFrom="0" laneChangedTo="0"/>
        <edge id="12" sampledSeconds="7808.21" traveltime="126.50" overlapTraveltime="127.31" density="3.92" occupancy="1.96" waitingTime="11.00" speed="15.67" departed="4" arrived="0" entered="60" left="58" laneChangedFrom="0" laneChangedTo="0"/>
        <edge id="13" sampledSeconds="693.24" traveltime="133.16" overlapTraveltime="133.90" density="0.58" occupancy="0.29" waitingTime="0.00" speed="8.93" departed="6" arrived="0" entered="0" left="4" laneChangedFrom="0" laneChangedTo="0"/>
        <edge id="14" sampledSeconds="5753.67" traveltime="78.24" overlapTraveltime="78.54" density="4.13" occupancy="2.07" waitingTime="0.00" speed="17.79" departed="8" arrived="32" entered="67" left="39" laneChangedFrom="0" laneChangedTo="0"/>
        <edge id="15" sampledSeconds="6657.52" traveltime="125.62" overlapTraveltime="125.98" density="3.34" occupancy="1.67" waitingTime="0.00" speed="15.84" departed="7" arrived="0" entered="45" left="52" laneChangedFrom="0" laneChangedTo="0"/>
        <edge id="16" sampledSeconds="3527.68" traveltime="63.82" overlapTraveltime="64.59" density="2.96" occupancy="1.48" waitingTime="0.00" speed="18.51" departed="3" arrived="0" entered="51" left="56" laneChangedFrom="0" laneChangedTo="0"/>
        <edge id="17" sampledSeconds="4146.51" traveltime="130.17" overlapTraveltime="131.02" density="2.08" occupancy="1.04" waitingTime="10.00" speed="15.24" departed="8" arrived="0" entered="22" left="33" laneChangedFrom="0" laneChangedTo="0"/>
        <edge id="18" sampledSeconds="1951.54" traveltime="49.53" overlapTraveltime="50.29" density="1.64" occupancy="0.82" waitingTime="5.00" speed="23.80" departed="8" arrived="0" entered="32" left="38" laneChangedFrom="0" laneChangedTo="0"/>
        <edge id="19" sampledSeconds="5562.15" traveltime="63.56" overlapTraveltime="64.11" density="4.67" occupancy="2.34" waitingTime="0.00" speed="18.65" departed="3" arrived="0" entered="84" left="87" laneChangedFrom="0" laneChangedTo="0"/>
        <edge id="2" sampledSeconds="842.89" traveltime="59.71" overlapTraveltime="60.27" density="0.61" occupancy="0.30" waitingTime="0.00" speed="23.18" departed="4" arrived="0" entered="10" left="14" laneChangedFrom="0" laneChangedTo="0"/>
        <edge id="20" sampledSeconds="9482.48" traveltime="128.78" overlapTraveltime="129.12" density="4.76" occupancy="2.38" waitingTime="0.00" speed="15.47" departed="12" arrived="40" entered="60" left="35" laneChangedFrom="0" laneChangedTo="0"/>
        <edge id="21" sampledSeconds="1917.36" traveltime="257.94" overlapTraveltime="258.82" density="0.96" occupancy="0.48" waitingTime="1.00" speed="7.71" departed="7" arrived="0" entered="0" left="7" laneChangedFrom="0" laneChangedTo="0"/>
        <edge id="22" sampledSeconds="5444.60" traveltime="119.42" overlapTraveltime="120.01" density="4.57" occupancy="2.29" waitingTime="0.00" speed="9.96" departed="14" arrived="0" entered="33" left="46" laneChangedFrom="0" laneChangedTo="0"/>
        <edge id="23" sampledSeconds="1585.20" traveltime="132.11" overlapTraveltime="133.01" density="1.33" occupancy="0.67" waitingTime="4.00" speed="8.99" departed="3" arrived="0" entered="9" left="12" laneChangedFrom="0" laneChangedTo="0"/>
        <edge id="24" sampledSeconds="3814.60" traveltime="258.90" overlapTraveltime="259.91" density="1.92" occupancy="0.96" waitingTime="18.00" speed="7.68" departed="11" arrived="0" entered="4" left="13" laneChangedFrom="0" laneChangedTo="0"/>
        <edge id="25" sampledSeconds="2877.07" traveltime="227.88" overlapTraveltime="228.75" density="2.42" occupancy="1.21" waitingTime="17.00" speed="5.23" departed="7" arrived="0" entered="5" left="14" laneChangedFrom="0" laneChangedTo="0"/>
        <edge id="26" sampledSeconds="1707.55" traveltime="226.61" overlapTraveltime="227.49" density="1.43" occupancy="0.72" waitingTime="0.00" speed="5.26" departed="8" arrived="0" entered="1" left="7" laneChangedFrom="0" laneChangedTo="0"/>
        <edge id="27" sampledSeconds="3755.69" traveltime="277.24" overlapTraveltime="277.95" density="2.10" occupancy="1.05" waitingTime="0.00" speed="6.46" departed="4" arrived="0" entered="9" left="14" laneChangedFrom="0" laneChangedTo="0"/>
        <edge id="28" sampledSeconds="3770.61" traveltime="345.83" overlapTraveltime="346.59" density="1.46" occupancy="0.73" waitingTime="0.00" speed="7.48" departed="6" arrived="0" entered="0" left="14" laneChangedFrom="0" laneChangedTo="0"/>
        <edge id="29" sampledSeconds="7661.43" traveltime="174.58" overlapTraveltime="175.59" density="3.87" occupancy="1.93" waitingTime="40.00" speed="11.32" departed="10" arrived="0" entered="39" left="41" laneChangedFrom="0" laneChangedTo="0"/>
        <edge id="3" sampledSeconds="9938.75" traveltime="221.09" overlapTraveltime="221.53" density="1.84" occupancy="0.92" waitingTime="3.00" speed="24.37" departed="6" arrived="38" entered="34" left="10" laneChangedFrom="0" laneChangedTo="0"/>
        <edge id="30" sampledSeconds="2995.53" traveltime="284.84" overlapTraveltime="286.00" density="1.30" occupancy="0.65" waitingTime="17.00" speed="8.10" departed="9" arrived="0" entered="0" left="12" laneChangedFrom="0" laneChangedTo="0"/>
        <edge id="31" sampledSeconds="3483.98" traveltime="230.89" overlapTraveltime="231.74" density="1.46" occupancy="0.73" waitingTime="4.00" speed="10.34" departed="9" arrived="0" entered="8" left="14" laneChangedFrom="0" laneChangedTo="0"/>
        <edge id="32" sampledSeconds="2867.81" traveltime="277.94" overlapTraveltime="278.67" density="1.60" occupancy="0.80" waitingTime="0.00" speed="6.44" departed="8" arrived="0" entered="4" left="10" laneChangedFrom="0" laneChangedTo="0"/>
        <edge id="33" sampledSeconds="3748.66" traveltime="114.68" overlapTraveltime="115.45" density="2.36" occupancy="1.18" waitingTime="5.00" speed="13.82" departed="3" arrived="0" entered="28" left="32" laneChangedFrom="0" laneChangedTo="0"/>
        <edge id="34" sampledSeconds="3270.85" traveltime="278.46" overlapTraveltime="279.17" density="1.26" occupancy="0.63" waitingTime="0.00" speed="9.30" departed="4" arrived="0" entered="9" left="12" laneChangedFrom="0" laneChangedTo="0"/>
        <edge id="35" sampledSeconds="4352.07" traveltime="93.67" overlapTraveltime="93.95" density="1.82" occupancy="0.91" waitingTime="0.00" speed="25.50" departed="5" arrived="0" entered="38" left="48" laneChangedFrom="0" laneChangedTo="0"/>
        <edge id="36" sampledSeconds="1340.25" traveltime="115.15" overlapTraveltime="115.75" density="0.84" occupancy="0.42" waitingTime="0.00" speed="13.78" departed="9" arrived="0" entered="4" left="9" laneChangedFrom="0" laneChangedTo="0"/>
        <edge id="37" sampledSeconds="11403.09" traveltime="188.72" overlapTraveltime="188.92" density="2.11" occupancy="1.06" waitingTime="0.00" speed="28.57" departed="5" arrived="46" entered="54" left="16" laneChangedFrom="0" laneChangedTo="0"/>
        <edge id="38" sampledSeconds="7086.23" traveltime="188.92" overlapTraveltime="189.39" density="1.31" occupancy="0.66" waitingTime="2.00" speed="28.50" departed="3" arrived="0" entered="35" left="36" laneChangedFrom="0" laneChangedTo="0"/>
        <edge id="39" sampledSeconds="2432.52" traveltime="100.79" overlapTraveltime="101.42" density="1.53" occupancy="0.76" waitingTime="1.00" speed="15.75" departed="5" arrived="0" entered="19" left="24" laneChangedFrom="0" laneChangedTo="0"/>
        <edge id="4" sampledSeconds="1515.09" traveltime="78.88" overlapTraveltime="79.22" density="1.09" occupancy="0.54" waitingTime="0.00" speed="17.63" departed="5" arrived="0" entered="15" left="18" laneChangedFrom="0" laneChangedTo="0"/>
        <edge id="40" sampledSeconds="3774.78" traveltime="278.77" overlapTraveltime="279.50" density="1.46" occupancy="0.73" waitingTime="0.00" speed="9.29" departed="5" arrived="0" entered="8" left="14" laneChangedFrom="0" laneChangedTo="0"/>
        <edge id="41" sampledSeconds="4329.41" traveltime="198.01" overlapTraveltime="198.87" density="2.42" occupancy="1.21" waitingTime="5.00" speed="9.03" departed="10" arrived="0" entered="11" left="21" laneChangedFrom="0" laneChangedTo="0"/>
        <edge id="42" sampledSeconds="2540.72" traveltime="128.83" overlapTraveltime="129.52" density="2.13" occupancy="1.07" waitingTime="0.00" speed="9.23" departed="9" arrived="0" entered="9" left="20" laneChangedFrom="0" laneChangedTo="0"/>
        <edge id="43" sampledSeconds="2704.28" traveltime="346.95" overlapTraveltime="347.79" density="1.04" occupancy="0.52" waitingTime="6.00" speed="7.46" departed="8" arrived="0" entered="0" left="8" laneChangedFrom="0" laneChangedTo="0"/>
        <edge id="44" sampledSeconds="1779.07" traveltime="197.66" overlapTraveltime="198.35" density="0.99" occupancy="0.50" waitingTime="0.00" speed="9.05" departed="6" arrived="0" entered="0" left="9" laneChangedFrom="0" laneChangedTo="0"/>
        <edge id="45" sampledSeconds="8203.96" traveltime="127.85" overlapTraveltime="128.24" density="4.12" occupancy="2.06" waitingTime="0.00" speed="15.56" departed="3" arrived="0" entered="62" left="64" laneChangedFrom="0" laneChangedTo="0"/>