<?xml version="1.0" encoding="UTF-8"?>

<!-- generated on 02/12/18 15:30:36 by SUMO Version 0.30.0
<?xml version="1.0" encoding="UTF-8"?>

<configuration xmlns:xsi="http://www.w3.org/2001/XMLSchema-instance" xsi:noNamespaceSchemaLocation="http://sumo.dlr.de/xsd/sumoConfiguration.xsd">

    <input>
        <net-file value="C:/Users/Shekar/Desktop/laptop/sumo_sim/sioux_falls/config/../network/sf_net.net.xml"/>
        <route-files value="C:/Users/Shekar/Desktop/laptop/sumo_sim/sioux_falls/config/../trips/trip.xml"/>
        <additional-files value="C:/Users/Shekar/Desktop/laptop/sumo_sim/sioux_falls/config/additional_12__0_1000.xml"/>
    </input>

    <output>
        <summary-output value="C:/Users/Shekar/Desktop/laptop/sumo_sim/sioux_falls/config/../output/summary_12__0_1000.xml"/>
    </output>

    <processing>
        <time-to-teleport value="300"/>
    </processing>

    <report>
        <log value="C:/Users/Shekar/Desktop/laptop/sumo_sim/sioux_falls/config/../output/report_12__0_1000.xml"/>
    </report>

</configuration>
-->

<meandata xmlns:xsi="http://www.w3.org/2001/XMLSchema-instance" xsi:noNamespaceSchemaLocation="http://sumo.dlr.de/xsd/meandata_file.xsd">
    <interval begin="0.00" end="1000.00" id="1">
        <edge id="1" sampledSeconds="6465.67" traveltime="222.18" overlapTraveltime="222.52" density="1.20" occupancy="0.60" waitingTime="3.00" speed="24.26" departed="6" arrived="10" entered="29" left="11" laneChangedFrom="0" laneChangedTo="0"/>
        <edge id="10" sampledSeconds="1645.90" traveltime="231.46" overlapTraveltime="232.11" density="0.69" occupancy="0.34" waitingTime="0.00" speed="10.32" departed="8" arrived="0" entered="0" left="5" laneChangedFrom="0" laneChangedTo="0"/>
        <edge id="11" sampledSeconds="2657.02" traveltime="84.86" overlapTraveltime="85.15" density="1.48" occupancy="0.74" waitingTime="0.00" speed="21.09" departed="4" arrived="0" entered="28" left="31" laneChangedFrom="0" laneChangedTo="0"/>
        <edge id="12" sampledSeconds="656.68" traveltime="130.83" overlapTraveltime="131.67" density="0.33" occupancy="0.16" waitingTime="6.00" speed="15.15" departed="5" arrived="0" entered="0" left="5" laneChangedFrom="0" laneChangedTo="0"/>
        <edge id="13" sampledSeconds="4332.90" traveltime="131.41" overlapTraveltime="132.13" density="3.64" occupancy="1.82" waitingTime="0.00" speed="9.05" departed="8" arrived="0" entered="26" left="32" laneChangedFrom="0" laneChangedTo="0"/>
        <edge id="14" sampledSeconds="3851.37" traveltime="78.12" overlapTraveltime="78.39" density="2.77" occupancy="1.38" waitingTime="0.00" speed="17.82" departed="5" arrived="18" entered="50" left="27" laneChangedFrom="0" laneChangedTo="0"/>
        <edge id="15" sampledSeconds="2905.91" traveltime="126.52" overlapTraveltime="126.94" density="1.46" occupancy="0.73" waitingTime="0.00" speed="15.72" departed="10" arrived="0" entered="15" left="21" laneChangedFrom="0" laneChangedTo="0"/>
        <edge id="16" sampledSeconds="1218.47" traveltime="63.63" overlapTraveltime="64.20" density="1.02" occupancy="0.51" waitingTime="0.00" speed="18.62" departed="5" arrived="0" entered="14" left="19" laneChangedFrom="0" laneChangedTo="0"/>
        <edge id="17" sampledSeconds="3332.55" traveltime="130.22" overlapTraveltime="130.87" density="1.67" occupancy="0.84" waitingTime="0.00" speed="15.26" departed="11" arrived="0" entered="17" left="24" laneChangedFrom="0" laneChangedTo="0"/>
        <edge id="18" sampledSeconds="1080.17" traveltime="48.95" overlapTraveltime="49.72" density="0.91" occupancy="0.45" waitingTime="8.00" speed="24.08" departed="4" arrived="0" entered="18" left="21" laneChangedFrom="0" laneChangedTo="0"/>
        <edge id="19" sampledSeconds="3770.06" traveltime="63.66" overlapTraveltime="64.06" density="3.17" occupancy="1.58" waitingTime="0.00" speed="18.66" departed="10" arrived="0" entered="51" left="56" laneChangedFrom="0" laneChangedTo="0"/>
        <edge id="2" sampledSeconds="739.94" traveltime="61.16" overlapTraveltime="61.79" density="0.53" occupancy="0.27" waitingTime="0.00" speed="22.61" departed="7" arrived="0" entered="5" left="12" laneChangedFrom="0" laneChangedTo="0"/>
        <edge id="20" sampledSeconds="4675.40" traveltime="129.48" overlapTraveltime="129.89" density="2.35" occupancy="1.17" waitingTime="2.00" speed="15.37" departed="9" arrived="14" entered="31" left="19" laneChangedFrom="0" laneChangedTo="0"/>
        <edge id="21" sampledSeconds="907.29" traveltime="256.95" overlapTraveltime="257.63" density="0.46" occupancy="0.23" waitingTime="0.00" speed="7.75" departed="4" arrived="0" entered="0" left="3" laneChangedFrom="0" laneChangedTo="0"/>
        <edge id="22" sampledSeconds="2641.12" traveltime="119.46" overlapTraveltime="120.26" density="2.22" occupancy="1.11" waitingTime="4.00" speed="9.94" departed="5" arrived="0" entered="19" left="20" laneChangedFrom="0" laneChangedTo="0"/>
        <edge id="23" sampledSeconds="1376.18" traveltime="132.42" overlapTraveltime="133.20" density="1.16" occupancy="0.58" waitingTime="2.00" speed="8.98" departed="6" arrived="0" entered="6" left="9" laneChangedFrom="0" laneChangedTo="0"/>
        <edge id="24" sampledSeconds="6372.19" traveltime="256.92" overlapTraveltime="257.69" density="3.20" occupancy="1.60" waitingTime="14.00" speed="7.74" departed="6" arrived="0" entered="25" left="21" laneChangedFrom="0" laneChangedTo="0"/>
        <edge id="25" sampledSeconds="2763.26" traveltime="225.89" overlapTraveltime="226.77" density="2.32" occupancy="1.16" waitingTime="0.00" speed="5.27" departed="8" arrived="0" entered="6" left="9" laneChangedFrom="0" laneChangedTo="0"/>
        <edge id="26" sampledSeconds="506.44" traveltime="225.43" overlapTraveltime="226.34" density="0.43" occupancy="0.21" waitingTime="0.00" speed="5.28" departed="2" arrived="0" entered="1" left="2" laneChangedFrom="0" laneChangedTo="0"/>
        <edge id="27" sampledSeconds="2177.66" traveltime="277.28" overlapTraveltime="278.04" density="1.22" occupancy="0.61" waitingTime="0.00" speed="6.46" departed="4" arrived="0" entered="6" left="6" laneChangedFrom="0" laneChangedTo="0"/>
        <edge id="28" sampledSeconds="5375.62" traveltime="346.37" overlapTraveltime="347.01" density="2.08" occupancy="1.04" waitingTime="0.00" speed="7.47" departed="11" arrived="0" entered="13" left="7" laneChangedFrom="0" laneChangedTo="0"/>
        <edge id="29" sampledSeconds="3031.82" traveltime="173.20" overlapTraveltime="173.98" density="1.53" occupancy="0.76" waitingTime="1.00" speed="11.42" departed="4" arrived="0" entered="14" left="16" laneChangedFrom="0" laneChangedTo="0"/>
        <edge id="3" sampledSeconds="5428.03" traveltime="221.97" overlapTraveltime="222.27" density="1.01" occupancy="0.50" waitingTime="0.00" speed="24.29" departed="3" arrived="7" entered="33" left="7" laneChangedFrom="0" laneChangedTo="0"/>
        <edge id="30" sampledSeconds="1138.00" traveltime="284.07" overlapTraveltime="284.73" density="0.49" occupancy="0.25" waitingTime="0.00" speed="8.14" departed="6" arrived="0" entered="1" left="2" laneChangedFrom="0" laneChangedTo="0"/>
        <edge id="31" sampledSeconds="1028.14" traveltime="231.58" overlapTraveltime="232.30" density="0.43" occupancy="0.22" waitingTime="0.00" speed="10.31" departed="4" arrived="0" entered="1" left="4" laneChangedFrom="0" laneChangedTo="0"/>
        <edge id="32" sampledSeconds="2371.30" traveltime="277.88" overlapTraveltime="278.62" density="1.32" occupancy="0.66" waitingTime="0.00" speed="6.44" departed="6" arrived="0" entered="3" left="8" laneChangedFrom="0" laneChangedTo="0"/>
        <edge id="33" sampledSeconds="2423.91" traveltime="115.45" overlapTraveltime="116.27" density="1.52" occupancy="0.76" waitingTime="8.00" speed="13.72" departed="4" arrived="0" entered="20" left="19" laneChangedFrom="0" laneChangedTo="0"/>
        <edge id="34" sampledSeconds="1382.74" traveltime="279.24" overlapTraveltime="279.88" density="0.53" occupancy="0.27" waitingTime="0.00" speed="9.27" departed="6" arrived="0" entered="0" left="4" laneChangedFrom="0" laneChangedTo="0"/>
        <edge id="35" sampledSeconds="2513.03" traveltime="94.93" overlapTraveltime="95.19" density="1.05" occupancy="0.53" waitingTime="0.00" speed="25.17" departed="7" arrived="0" entered="24" left="23" laneChangedFrom="0" laneChangedTo="0"/>
        <edge id="36" sampledSeconds="540.36" traveltime="115.54" overlapTraveltime="116.14" density="0.34" occupancy="0.17" waitingTime="0.00" speed="13.74" departed="4" arrived="0" entered="1" left="4" laneChangedFrom="0" laneChangedTo="0"/>
        <edge id="37" sampledSeconds="8363.16" traveltime="188.78" overlapTraveltime="189.02" density="1.55" occupancy="0.78" waitingTime="0.00" speed="28.55" departed="4" arrived="18" entered="47" left="20" laneChangedFrom="0" laneChangedTo="0"/>
        <edge id="38" sampledSeconds="4458.17" traveltime="190.09" overlapTraveltime="190.48" density="0.83" occupancy="0.41" waitingTime="0.00" speed="28.33" departed="5" arrived="0" entered="21" left="22" laneChangedFrom="0" laneChangedTo="0"/>
        <edge id="39" sampledSeconds="2719.78" traveltime="101.23" overlapTraveltime="102.09" density="1.71" occupancy="0.85" waitingTime="2.00" speed="15.64" departed="8" arrived="0" entered="20" left="26" laneChangedFrom="0" laneChangedTo="0"/>
        <edge id="4" sampledSeconds="1463.31" traveltime="80.60" overlapTraveltime="81.51" density="1.05" occupancy="0.53" waitingTime="1.00" speed="17.14" departed="13" arrived="0" entered="5" left="18" laneChangedFrom="0" laneChangedTo="0"/>
        <edge id="40" sampledSeconds="2753.13" traveltime="278.81" overlapTraveltime="279.48" density="1.06" occupancy="0.53" waitingTime="0.00" speed="9.29" departed="6" arrived="0" entered="6" left="9" laneChangedFrom="0" laneChangedTo="0"/>
        <edge id="41" sampledSeconds="3318.67" traveltime="197.74" overlapTraveltime="198.50" density="1.85" occupancy="0.93" waitingTime="1.00" speed="9.05" departed="9" arrived="0" entered="10" left="15" laneChangedFrom="0" laneChangedTo="0"/>
        <edge id="42" sampledSeconds="693.71" traveltime="129.85" overlapTraveltime="130.48" density="0.58" occupancy="0.29" waitingTime="0.00" speed="9.16" departed="7" arrived="0" entered="0" left="5" laneChangedFrom="0" laneChangedTo="0"/>
        <edge id="43" sampledSeconds="3107.17" traveltime="347.31" overlapTraveltime="348.13" density="1.20" occupancy="0.60" waitingTime="2.00" speed="7.45" departed="11" arrived="0" entered="0" left="7" laneChangedFrom="0" laneChangedTo="0"/>
        <edge id="44" sampledSeconds="1039.58" traveltime="198.53" overlapTraveltime="199.21" density="0.58" occupancy="0.29" waitingTime="0.00" speed="9.01" departed="5" arrived="0" entered="2" left="5" laneChangedFrom="0" laneChangedTo="0"/>
        <edge id="45" sampledSeconds="4069.43" traveltime="128.07" overlapTraveltime="128.46" density="2.04" occupancy="1.02" waitingTime="0.00" speed="15.53" departed="4" arrived="0" entered="32" left="28" laneChangedFrom="0" laneChangedTo="0"/>
        <edge id="46" sampledSeconds="2369.54" traveltime="71.41" overlapTraveltime="71.93" density="1.99" occupancy="1.00" waitingTime="0.00" speed="16.62" departed="5" arrived="0" entered="32" left="28" laneChangedFrom="0" laneChangedTo="0"/>
        <edge id="47" sampledSeconds="4868.75" traveltime="119.13" overlapTraveltime="119.63" density="4.09" occupancy="2.04" waitingTime="0.00" speed="9.99" departed="5" arrived="0" entered="38" left="37" laneChangedFrom="0" laneChangedTo="0"/>
        <edge id="48" sampledSeconds="1838.67" traveltime="173.55" overlapTraveltime="174.19" density="0.93" occupancy="0.46" waitingTime="0.00" speed="11.41" departed="9" arrived="0" entered="3" left="9" laneChangedFrom="0" laneChangedTo="0"/>
        <edge id="49" sampledSeconds="1568.56" traveltime="40.94" overlapTraveltime="41.32" density="1.32" occupancy="0.66" waitingTime="0.00" speed="28.87" departed="10" arrived="0" entered="28" left="38" laneChangedFrom="0" laneChangedTo="0"/>
        <edge id="5" sampledSeconds="2338.75" traveltime="58.66" overlapTraveltime="58.89" density="1.68" occupancy="0.84" waitingTime="0.00" speed="23.72" departed="6" arrived="11" entered="35" left="27" laneChangedFrom="0" laneChangedTo="0"/>
        <edge id="50" sampledSeconds="4075.74" traveltime="159.78" overlapTraveltime="160.57" density="2.05" occupancy="1.02" waitingTime="13.00" speed="12.42" departed="9" arrived="0" entered="17" left="25" laneChangedFrom="0" laneChangedTo="0"/>
        <edge id="51" sampledSeconds="614.82" traveltime="282.55" overlapTraveltime="283.17" density="0.27" occupancy="0.13" waitingTime="0.00" speed="8.18" departed="3" arrived="0" entered="0" left="2" laneChangedFrom="0" laneChangedTo="0"/>
        <edge id="52" sampledSeconds="1791.45" traveltime="40.72" overlapTraveltime="41.31" density="1.51" occupancy="0.75" waitingTime="7.00" speed="28.88" departed="10" arrived="0" entered="35" left="41" laneChangedFrom="0" laneChangedTo="0"/>
        <edge id="53" sampledSeconds="4804.15" traveltime="110.88" overlapTraveltime="111.39" density="3.45" occupancy="1.73" waitingTime="0.00" speed="12.54" departed="11" arrived="0" entered="36" left="37" laneChangedFrom="0" laneChangedTo="0"/>
        <edge id="54" sampledSeconds="1658.82" traveltime="48.69" overlapTraveltime="48.97" density="1.39" occupancy="0.70" waitingTime="0.00" speed="24.44" departed="4" arrived="17" entered="30" left="16" laneChangedFrom="0" laneChangedTo="0"/>
        <edge id="55" sampledSeconds="1577.10" traveltime="161.11" overlapTraveltime="161.89" density="0.79" occupancy="0.40" waitingTime="0.00" speed="12.32" departed="10" arrived="0" entered="1" left="9" laneChangedFrom="0" laneChangedTo="0"/>
        <edge id="56" sampledSeconds="6340.78" traveltime="216.19" overlapTraveltime="216.55" density="1.11" occupancy="0.55" waitingTime="0.00" speed="26.50" departed="9" arrived="7" entered="31" left="15" laneChangedFrom="0" laneChangedTo="0"/>
        <edge id="57" sampledSeconds="2804.80" traveltime="129.56" overlapTraveltime="130.23" density="1.41" occupancy="0.70" waitingTime="5.00" speed="15.32" departed="4" arrived="0" entered="20" left="19" laneChangedFrom="0" laneChangedTo="0"/>
        <edge id="58" sampledSeconds="3646.05" traveltime="110.62" overlapTraveltime="111.03" density="2.62" occupancy="1.31" waitingTime="0.00" speed="12.58" departed="7" arrived="0" entered="27" left="31" laneChangedFrom="0" laneChangedTo="0"/>
        <edge id="59" sampledSeconds="4828.80" traveltime="240.82" overlapTraveltime="241.30" density="1.74" occupancy="0.87" waitingTime="0.00" speed="11.52" departed="5" arrived="10" entered="22" left="3" laneChangedFrom="0" laneChangedTo="0"/>
        <edge id="6" sampledSeconds="1823.22" traveltime="94.75" overlapTraveltime="95.09" density="1.15" occupancy="0.57" waitingTime="0.00" speed="16.78" departed="7" arrived="0" entered="14" left="19" laneChangedFrom="0" laneChangedTo="0"/>
        <edge id="60" sampledSeconds="3819.39" traveltime="216.17" overlapTraveltime="216.90" density="0.67" occupancy="0.33" waitingTime="1.00" speed="26.45" departed="6" arrived="0" entered="14" left="16" laneChangedFrom="0" laneChangedTo="0"/>
        <edge id="61" sampledSeconds="1184.76" traveltime="242.60" overlapTraveltime="243.20" density="0.43" occupancy="0.21" waitingTime="0.00" speed="11.43" departed="4" arrived="0" entered="1" left="4" laneChangedFrom="0" laneChangedTo="0"/>
        <edge id="62" sampledSeconds="4051.43" traveltime="222.61" overlapTraveltime="223.39" density="2.04" occupancy="1.02" waitingTime="12.00" speed="8.91" departed="5" arrived="0" entered="15" left="17" laneChangedFrom="0" laneChangedTo="0"/>
        <edge id="63" sampledSeconds="1843.61" traveltime="218.27" overlapTraveltime="219.10" density="0.73" occupancy="0.36" waitingTime="2.00" speed="11.63" departed="5" arrived="0" entered="4" left="8" laneChangedFrom="0" laneChangedTo="0"/>
        <edge id="64" sampledSeconds="4989.05" traveltime="221.44" overlapTraveltime="222.01" density="2.51" occupancy="1.26" waitingTime="0.00" speed="8.96" departed="4" arrived="8" entered="23" left="8" laneChangedFrom="0" laneChangedTo="0"/>
        <edge id="65" sampledSeconds="3084.12" traveltime="126.82" overlapTraveltime="127.29" density="1.94" occupancy="0.97" waitingTime="0.00" speed="12.51" departed="11" arrived="0" entered="14" left="23" laneChangedFrom="0" laneChangedTo="0"/>
        <edge id="66" sampledSeconds="4405.97" traveltime="127.36" overlapTraveltime="127.73" density="2.46" occupancy="1.23" waitingTime="0.00" speed="14.06" departed="7" arrived="0" entered="30" left="30" laneChangedFrom="0" laneChangedTo="0"/>
        <edge id="67" sampledSeconds="1926.81" traveltime="71.37" overlapTraveltime="71.80" density="1.62" occupancy="0.81" waitingTime="0.00" speed="16.65" departed="8" arrived="0" entered="20" left="25" laneChangedFrom="0" laneChangedTo="0"/>
        <edge id="68" sampledSeconds="6698.36" traveltime="254.50" overlapTraveltime="255.11" density="2.63" occupancy="1.32" waitingTime="1.00" speed="9.98" departed="6" arrived="10" entered="25" left="8" laneChangedFrom="0" laneChangedTo="0"/>
        <edge id="69" sampledSeconds="1878.32" traveltime="60.28" overlapTraveltime="60.65" density="1.18" occupancy="0.59" waitingTime="0.00" speed="26.25" departed="8" arrived="0" entered="25" left="30" laneChangedFrom="0" laneChangedTo="0"/>
        <edge id="7" sampledSeconds="3096.34" traveltime="94.86" overlapTraveltime="95.07" density="1.30" occupancy="0.65" waitingTime="0.00" speed="25.20" departed="5" arrived="0" entered="28" left="31" laneChangedFrom="0" laneChangedTo="0"/>
        <edge id="70" sampledSeconds="947.98" traveltime="174.09" overlapTraveltime="174.77" density="0.53" occupancy="0.26" waitingTime="0.00" speed="10.27" departed="6" arrived="0" entered="0" left="5" laneChangedFrom="0" laneChangedTo="0"/>
        <edge id="71" sampledSeconds="944.17" traveltime="129.58" overlapTraveltime="130.25" density="0.79" occupancy="0.40" waitingTime="0.00" speed="9.18" departed="7" arrived="0" entered="1" left="7" laneChangedFrom="0" laneChangedTo="0"/>
        <edge id="72" sampledSeconds="2453.66" traveltime="173.05" overlapTraveltime="173.76" density="1.37" occupancy="0.69" waitingTime="1.00" speed="10.33" departed="6" arrived="0" entered="11" left="11" laneChangedFrom="0" laneChangedTo="0"/>
        <edge id="73" sampledSeconds="1650.70" traveltime="154.35" overlapTraveltime="154.98" density="1.04" occupancy="0.52" waitingTime="0.00" speed="10.30" departed="7" arrived="0" entered="6" left="9" laneChangedFrom="0" laneChangedTo="0"/>
        <edge id="74" sampledSeconds="4502.59" traveltime="100.53" overlapTraveltime="100.88" density="2.83" occupancy="1.41" waitingTime="0.00" speed="15.83" departed="5" arrived="18" entered="48" left="21" laneChangedFrom="0" laneChangedTo="0"/>
        <edge id="75" sampledSeconds="2866.64" traveltime="129.20" overlapTraveltime="129.91" density="1.60" occupancy="0.80" waitingTime="3.00" speed="13.82" departed="8" arrived="0" entered="16" left="20" laneChangedFrom="0" laneChangedTo="0"/>
        <edge id="76" sampledSeconds="1268.82" traveltime="154.69" overlapTraveltime="155.36" density="0.80" occupancy="0.40" waitingTime="0.00" speed="10.27" departed="8" arrived="0" entered="1" left="8" laneChangedFrom="0" laneChangedTo="0"/>
        <edge id="8" sampledSeconds="4161.86" traveltime="95.49" overlapTraveltime="96.19" density="2.62" occupancy="1.31" waitingTime="3.00" speed="16.59" departed="10" arrived="0" entered="34" left="42" laneChangedFrom="0" laneChangedTo="0"/>
        <edge id="9" sampledSeconds="2182.18" traveltime="85.51" overlapTraveltime="86.02" density="1.22" occupancy="0.61" waitingTime="0.00" speed="20.87" departed="6" arrived="0" entered="20" left="24" laneChangedFrom="0" laneChangedTo="0"/>
    </interval>
    <interval begin="1000.00" end="2000.00" id="2">
        <edge id="1" sampledSeconds="13727.28" traveltime="222.09" overlapTraveltime="222.36" density="2.55" occupancy="1.27" waitingTime="0.00" speed="24.28" departed="8" arrived="41" entered="57" left="20" laneChangedFrom="0" laneChangedTo="0"/>
        <edge id="10" sampledSeconds="2561.07" traveltime="231.70" overlapTraveltime="232.51" density="1.07" occupancy="0.54" waitingTime="1.00" speed="10.30" departed="11" arrived="0" entered="0" left="12" laneChangedFrom="0" laneChangedTo="0"/>
        <edge id="11" sampledSeconds="3954.58" traveltime="85.32" overlapTraveltime="85.66" density="2.21" occupancy="1.10" waitingTime="0.00" speed="20.96" departed="12" arrived="0" entered="36" left="42" laneChangedFrom="0" laneChangedTo="0"/>
        <edge id="12" sampledSeconds="5458.05" traveltime="126.74" overlapTraveltime="127.51" density="2.74" occupancy="1.37" waitingTime="21.00" speed="15.65" departed="4" arrived="0" entered="42" left="40" laneChangedFrom="0" laneChangedTo="0"/>
        <edge id="13" sampledSeconds="1504.57" traveltime="131.78" overlapTraveltime="132.59" density="1.26" occupancy="0.63" waitingTime="0.00" speed="9.02" departed="6" arrived="0" entered="5" left="11" laneChangedFrom="0" laneChangedTo="0"/>
        <edge id="14" sampledSeconds="6931.74" traveltime="77.97" overlapTraveltime="78.27" density="4.98" occupancy="2.49" waitingTime="0.00" speed="17.85" departed="8" arrived="33" entered="81" left="53" laneChangedFrom="0" laneChangedTo="0"/>
        <edge id="15" sampledSeconds="3934.26" traveltime="125.86" overlapTraveltime="126.23" density="1.98" occupancy="0.99" waitingTime="0.00" speed="15.81" departed="7" arrived="0" entered="23" left="32" laneChangedFrom="0" laneChangedTo="0"/>
        <edge id="16" sampledSeconds="2774.72" traveltime="63.53" overlapTraveltime="64.18" density="2.33" occupancy="1.17" waitingTime="0.00" speed="18.63" departed="3" arrived="0" entered="42" left="42" laneChangedFrom="0" laneChangedTo="0"/>
        <edge id="17" sampledSeconds="3782.73" traveltime="130.20" overlapTraveltime="131.05" density="1.90" occupancy="0.95" waitingTime="6.00" speed="15.24" departed="8" arrived="0" entered="20" left="30" laneChangedFrom="0" laneChangedTo="0"/>
        <edge id="18" sampledSeconds="1912.11" traveltime="49.33" overlapTraveltime="49.87" density="1.60" occupancy="0.80" waitingTime="0.00" speed="24.00" departed="8" arrived="0" entered="32" left="38" laneChangedFrom="0" laneChangedTo="0"/>
        <edge id="19" sampledSeconds="5336.04" traveltime="63.21" overlapTraveltime="63.62" density="4.48" occupancy="2.24" waitingTime="0.00" speed="18.79" departed="3" arrived="0" entered="81" left="84" laneChangedFrom="0" laneChangedTo="0"/>
        <edge id="2" sampledSeconds="667.33" traveltime="59.70" overlapTraveltime="60.75" density="0.48" occupancy="0.24" waitingTime="4.00" speed="23.00" departed="4" arrived="0" entered="7" left="11" laneChangedFrom="0" laneChangedTo="0"/>
        <edge id="20" sampledSeconds="9585.48" traveltime="128.63" overlapTraveltime="128.98" density="4.81" occupancy="2.41" waitingTime="0.00" speed="15.48" departed="12" arrived="41" entered="61" left="35" laneChangedFrom="0" laneChangedTo="0"/>
        <edge id="21" sampledSeconds="1914.79" traveltime="257.67" overlapTraveltime="258.50" density="0.96" occupancy="0.48" waitingTime="0.00" speed="7.72" departed="7" arrived="0" entered="0" left="7" laneChangedFrom="0" laneChangedTo="0"/>
        <edge id="22" sampledSeconds="5182.02" traveltime="119.51" overlapTraveltime="120.15" density="4.35" occupancy="2.18" waitingTime="2.00" speed="9.95" departed="14" arrived="0" entered="30" left="44" laneChangedFrom="0" laneChangedTo="0"/>
        <edge id="23" sampledSeconds="1644.87" traveltime="131.40" overlapTraveltime="132.08" density="1.38" occupancy="0.69" waitingTime="0.00" speed="9.05" departed="3" arrived="0" entered="9" left="13" laneChangedFrom="0" laneChangedTo="0"/>
        <edge id="24" sampledSeconds="7071.41" traveltime="259.30" overlapTraveltime="260.43" density="3.55" occupancy="1.78" waitingTime="40.00" speed="7.66" departed="11" arrived="0" entered="11" left="29" laneChangedFrom="0" laneChangedTo="0"/>
        <edge id="25" sampledSeconds="3101.75" traveltime="227.70" overlapTraveltime="228.74" density="2.61" occupancy="1.30" waitingTime="16.00" speed="5.23" departed="7" arrived="0" entered="6" left="15" laneChangedFrom="0" laneChangedTo="0"/>
        <edge id="26" sampledSeconds="1786.74" traveltime="226.56" overlapTraveltime="227.45" density="1.50" occupancy="0.75" waitingTime="0.00" speed="5.26" departed="8" arrived="0" entered="0" left="8" laneChangedFrom="0" laneChangedTo="0"/>
        <edge id="27" sampledSeconds="3709.41" traveltime="277.43" overlapTraveltime="278.15" density="2.07" occupancy="1.04" waitingTime="0.00" speed="6.46" departed="4" arrived="0" entered="11" left="13" laneChangedFrom="0" laneChangedTo="0"/>
        <edge id="28" sampledSeconds="8772.61" traveltime="345.17" overlapTraveltime="345.83" density="3.39" occupancy="1.69" waitingTime="0.00" speed="7.50" departed="6" arrived="0" entered="15" left="32" laneChangedFrom="0" laneChangedTo="0"/>
        <edge id="29" sampledSeconds="5815.64" traveltime="173.98" overlapTraveltime="174.86" density="2.93" occupancy="1.47" waitingTime="20.00" speed="11.36" departed="10" arrived="0" entered="27" left="31" laneChangedFrom="0" laneChangedTo="0"/>
        <edge id="3" sampledSeconds="14385.15" traveltime="221.70" overlapTraveltime="222.17" density="2.67" occupancy="1.33" waitingTime="1.00" speed="24.30" departed="7" arrived="41" entered="55" left="28" laneChangedFrom="0" laneChangedTo="0"/>
        <edge id="30" sampledSeconds="2975.35" traveltime="282.76" overlapTraveltime="283.61" density="1.29" occupancy="0.64" waitingTime="3.00" speed="8.17" departed="9" arrived="0" entered="0" left="12" laneChangedFrom="0" laneChangedTo="0"/>
        <edge id="31" sampledSeconds="3234.80" traveltime="230.69" overlapTraveltime="231.38" density="1.35" occupancy="0.68" waitingTime="0.00" speed="10.35" departed="9" arrived="0" entered="6" left="13" laneChangedFrom="0" laneChangedTo="0"/>
        <edge id="32" sampledSeconds="3423.81" traveltime="277.90" overlapTraveltime="278.63" density="1.91" occupancy="0.96" waitingTime="0.00" speed="6.44" departed="8" arrived="0" entered="6" left="12" laneChangedFrom="0" laneChangedTo="0"/>
        <edge id="33" sampledSeconds="3641.34" traveltime="114.28" overlapTraveltime="115.03" density="2.29" occupancy="1.14" waitingTime="0.00" speed="13.87" departed="3" arrived="0" entered="28" left="31" laneChangedFrom="0" laneChangedTo="0"/>
        <edge id="34" sampledSeconds="1790.37" traveltime="278.35" overlapTraveltime="278.95" density="0.69" occupancy="0.35" waitingTime="0.00" speed="9.30" departed="4" arrived="0" entered="4" left="6" laneChangedFrom="0" laneChangedTo="0"/>
        <edge id="35" sampledSeconds="4372.88" traveltime="93.45" overlapTraveltime="93.67" density="1.83" occupancy="0.91" waitingTime="0.00" speed="25.57" departed="5" arrived="0" entered="39" left="48" laneChangedFrom="0" laneChangedTo="0"/>
        <edge id="36" sampledSeconds="1263.63" traveltime="115.40" overlapTraveltime="115.94" density="0.79" occupancy="0.40" waitingTime="0.00" speed="13.76" departed="9" arrived="0" entered="3" left="9" laneChangedFrom="0" laneChangedTo="0"/>
        <edge id="37" sampledSeconds="13016.03" traveltime="188.95" overlapTraveltime="189.16" density="2.41" occupancy="1.21" waitingTime="0.00" speed="28.53" departed="5" arrived="46" entered="63" left="24" laneChangedFrom="0" laneChangedTo="0"/>
        <edge id="38" sampledSeconds="9006.27" traveltime="189.06" overlapTraveltime="189.80" density="1.67" occupancy="0.84" waitingTime="8.00" speed="28.44" departed="3" arrived="0" entered="45" left="46" laneChangedFrom="0" laneChangedTo="0"/>
        <edge id="39" sampledSeconds="3252.63" traveltime="100.55" overlapTraveltime="101.38" density="2.04" occupancy="1.02" waitingTime="4.00" speed="15.75" departed="5" arrived="0" entered="27" left="32" laneChangedFrom="0" laneChangedTo="0"/>
        <edge id="4" sampledSeconds="1750.39" traveltime="78.64" overlapTraveltime="79.01" density="1.26" occupancy="0.63" waitingTime="0.00" speed="17.68" departed="5" arrived="0" entered="18" left="22" laneChangedFrom="0" laneChangedTo="0"/>
        <edge id="40" sampledSeconds="2760.86" traveltime="278.53" overlapTraveltime="279.15" density="1.07" occupancy="0.53" waitingTime="0.00" speed="9.30" departed="5" arrived="0" entered="6" left="10" laneChangedFrom="0" laneChangedTo="0"/>
        <edge id="41" sampledSeconds="4824.06" traveltime="198.29" overlapTraveltime="199.17" density="2.69" occupancy="1.35" waitingTime="14.00" speed="9.01" departed="10" arrived="0" entered="13" left="23" laneChangedFrom="0" laneChangedTo="0"/>
        <edge id="42" sampledSeconds="1509.42" traveltime="129.29" overlapTraveltime="129.95" density="1.27" occupancy="0.63" waitingTime="0.00" speed="9.20" departed="9" arrived="0" entered="1" left="12" laneChangedFrom="0" laneChangedTo="0"/>
        <edge id="43" sampledSeconds="2702.77" traveltime="346.49" overlapTraveltime="347.20" density="1.04" occupancy="0.52" waitingTime="0.00" speed="7.47" departed="8" arrived="0" entered="0" left="8" laneChangedFrom="0" laneChangedTo="0"/>
        <edge id="44" sampledSeconds="1468.83" traveltime="198.12" overlapTraveltime="198.85" density="0.82" occupancy="0.41" waitingTime="0.00" speed="9.03" departed="6" arrived="0" entered="0" left="7" laneChangedFrom="0" laneChangedTo="0"/>
        <edge id="45" sampledSeconds="6892.72" traveltime="128.00" overlapTraveltime="128.41" density="3.46" occupancy="1.73" waitingTime="0.00" speed="15.54" departed="3" arrived="0" entered="51" left="54" laneChangedFrom="0" laneChangedTo="0"/>