<?xml version="1.0" encoding="UTF-8"?>

<!-- generated on 02/12/18 15:57:42 by SUMO Version 0.30.0
<?xml version="1.0" encoding="UTF-8"?>

<configuration xmlns:xsi="http://www.w3.org/2001/XMLSchema-instance" xsi:noNamespaceSchemaLocation="http://sumo.dlr.de/xsd/sumoConfiguration.xsd">

    <input>
        <net-file value="C:/Users/Shekar/Desktop/laptop/sumo_sim/sioux_falls/config/../network/sf_net.net.xml"/>
        <route-files value="C:/Users/Shekar/Desktop/laptop/sumo_sim/sioux_falls/config/../trips/trip.xml"/>
        <additional-files value="C:/Users/Shekar/Desktop/laptop/sumo_sim/sioux_falls/config/additional_60__1000_2000.xml"/>
    </input>

    <output>
        <summary-output value="C:/Users/Shekar/Desktop/laptop/sumo_sim/sioux_falls/config/../output/summary_60__1000_2000.xml"/>
    </output>

    <processing>
        <time-to-teleport value="300"/>
    </processing>

    <report>
        <log value="C:/Users/Shekar/Desktop/laptop/sumo_sim/sioux_falls/config/../output/report_60__1000_2000.xml"/>
    </report>

</configuration>
-->

<meandata xmlns:xsi="http://www.w3.org/2001/XMLSchema-instance" xsi:noNamespaceSchemaLocation="http://sumo.dlr.de/xsd/meandata_file.xsd">
    <interval begin="0.00" end="1000.00" id="1">
        <edge id="1" sampledSeconds="5439.01" traveltime="222.29" overlapTraveltime="222.58" density="1.01" occupancy="0.50" waitingTime="0.00" speed="24.25" departed="6" arrived="10" entered="24" left="8" laneChangedFrom="0" laneChangedTo="0"/>
        <edge id="10" sampledSeconds="1644.02" traveltime="231.76" overlapTraveltime="232.43" density="0.69" occupancy="0.34" waitingTime="0.00" speed="10.31" departed="8" arrived="0" entered="0" left="5" laneChangedFrom="0" laneChangedTo="0"/>
        <edge id="11" sampledSeconds="2227.60" traveltime="84.73" overlapTraveltime="85.06" density="1.24" occupancy="0.62" waitingTime="0.00" speed="21.11" departed="4" arrived="0" entered="23" left="26" laneChangedFrom="0" laneChangedTo="0"/>
        <edge id="12" sampledSeconds="4435.02" traveltime="126.51" overlapTraveltime="127.22" density="2.23" occupancy="1.11" waitingTime="5.00" speed="15.68" departed="5" arrived="0" entered="31" left="34" laneChangedFrom="0" laneChangedTo="0"/>
        <edge id="13" sampledSeconds="1064.25" traveltime="132.91" overlapTraveltime="133.60" density="0.89" occupancy="0.45" waitingTime="0.00" speed="8.95" departed="8" arrived="0" entered="0" left="8" laneChangedFrom="0" laneChangedTo="0"/>
        <edge id="14" sampledSeconds="4313.07" traveltime="77.98" overlapTraveltime="78.26" density="3.10" occupancy="1.55" waitingTime="0.00" speed="17.85" departed="5" arrived="18" entered="56" left="32" laneChangedFrom="0" laneChangedTo="0"/>
        <edge id="15" sampledSeconds="2901.14" traveltime="126.56" overlapTraveltime="126.97" density="1.46" occupancy="0.73" waitingTime="0.00" speed="15.72" departed="10" arrived="0" entered="15" left="21" laneChangedFrom="0" laneChangedTo="0"/>
        <edge id="16" sampledSeconds="2489.12" traveltime="63.81" overlapTraveltime="64.45" density="2.09" occupancy="1.05" waitingTime="0.00" speed="18.55" departed="5" arrived="0" entered="35" left="37" laneChangedFrom="0" laneChangedTo="0"/>
        <edge id="17" sampledSeconds="3322.61" traveltime="130.18" overlapTraveltime="130.84" density="1.67" occupancy="0.83" waitingTime="0.00" speed="15.26" departed="11" arrived="0" entered="17" left="24" laneChangedFrom="0" laneChangedTo="0"/>
        <edge id="18" sampledSeconds="1131.35" traveltime="48.61" overlapTraveltime="49.23" density="0.95" occupancy="0.47" waitingTime="2.00" speed="24.32" departed="4" arrived="0" entered="19" left="23" laneChangedFrom="0" laneChangedTo="0"/>
        <edge id="19" sampledSeconds="3716.41" traveltime="63.61" overlapTraveltime="64.02" density="3.12" occupancy="1.56" waitingTime="0.00" speed="18.67" departed="10" arrived="0" entered="50" left="55" laneChangedFrom="0" laneChangedTo="0"/>
        <edge id="2" sampledSeconds="741.61" traveltime="61.11" overlapTraveltime="61.93" density="0.53" occupancy="0.27" waitingTime="0.00" speed="22.56" departed="7" arrived="0" entered="5" left="12" laneChangedFrom="0" laneChangedTo="0"/>
        <edge id="20" sampledSeconds="5001.11" traveltime="129.28" overlapTraveltime="129.67" density="2.51" occupancy="1.26" waitingTime="0.00" speed="15.40" departed="9" arrived="15" entered="34" left="20" laneChangedFrom="0" laneChangedTo="0"/>
        <edge id="21" sampledSeconds="908.99" traveltime="257.34" overlapTraveltime="258.07" density="0.46" occupancy="0.23" waitingTime="0.00" speed="7.73" departed="4" arrived="0" entered="0" left="3" laneChangedFrom="0" laneChangedTo="0"/>
        <edge id="22" sampledSeconds="3155.97" traveltime="119.29" overlapTraveltime="119.78" density="2.65" occupancy="1.33" waitingTime="0.00" speed="9.98" departed="5" arrived="0" entered="24" left="24" laneChangedFrom="0" laneChangedTo="0"/>
        <edge id="23" sampledSeconds="1371.03" traveltime="132.05" overlapTraveltime="132.78" density="1.15" occupancy="0.58" waitingTime="0.00" speed="9.00" departed="6" arrived="0" entered="6" left="9" laneChangedFrom="0" laneChangedTo="0"/>
        <edge id="24" sampledSeconds="2593.77" traveltime="258.52" overlapTraveltime="259.78" density="1.30" occupancy="0.65" waitingTime="8.00" speed="7.68" departed="6" arrived="0" entered="4" left="10" laneChangedFrom="0" laneChangedTo="0"/>
        <edge id="25" sampledSeconds="2080.76" traveltime="226.00" overlapTraveltime="226.89" density="1.75" occupancy="0.87" waitingTime="0.00" speed="5.27" departed="8" arrived="0" entered="3" left="6" laneChangedFrom="0" laneChangedTo="0"/>
        <edge id="26" sampledSeconds="454.39" traveltime="227.24" overlapTraveltime="228.17" density="0.38" occupancy="0.19" waitingTime="0.00" speed="5.24" departed="2" arrived="0" entered="0" left="2" laneChangedFrom="0" laneChangedTo="0"/>
        <edge id="27" sampledSeconds="2246.06" traveltime="278.40" overlapTraveltime="279.21" density="1.25" occupancy="0.63" waitingTime="0.00" speed="6.43" departed="4" arrived="0" entered="7" left="6" laneChangedFrom="0" laneChangedTo="0"/>
        <edge id="28" sampledSeconds="4763.03" traveltime="346.52" overlapTraveltime="347.20" density="1.84" occupancy="0.92" waitingTime="0.00" speed="7.47" departed="11" arrived="0" entered="10" left="7" laneChangedFrom="0" laneChangedTo="0"/>
        <edge id="29" sampledSeconds="3211.03" traveltime="173.39" overlapTraveltime="174.15" density="1.62" occupancy="0.81" waitingTime="5.00" speed="11.41" departed="4" arrived="0" entered="15" left="17" laneChangedFrom="0" laneChangedTo="0"/>
        <edge id="3" sampledSeconds="6137.64" traveltime="221.84" overlapTraveltime="222.14" density="1.14" occupancy="0.57" waitingTime="0.00" speed="24.30" departed="3" arrived="10" entered="36" left="7" laneChangedFrom="0" laneChangedTo="0"/>
        <edge id="30" sampledSeconds="855.08" traveltime="283.64" overlapTraveltime="284.28" density="0.37" occupancy="0.18" waitingTime="0.00" speed="8.15" departed="6" arrived="0" entered="0" left="1" laneChangedFrom="0" laneChangedTo="0"/>
        <edge id="31" sampledSeconds="1030.67" traveltime="231.94" overlapTraveltime="232.83" density="0.43" occupancy="0.22" waitingTime="3.00" speed="10.29" departed="4" arrived="0" entered="1" left="4" laneChangedFrom="0" laneChangedTo="0"/>
        <edge id="32" sampledSeconds="2374.34" traveltime="278.26" overlapTraveltime="279.00" density="1.33" occupancy="0.66" waitingTime="0.00" speed="6.44" departed="6" arrived="0" entered="3" left="8" laneChangedFrom="0" laneChangedTo="0"/>
        <edge id="33" sampledSeconds="2416.23" traveltime="115.19" overlapTraveltime="116.00" density="1.52" occupancy="0.76" waitingTime="0.00" speed="13.75" departed="4" arrived="0" entered="20" left="19" laneChangedFrom="0" laneChangedTo="0"/>
        <edge id="34" sampledSeconds="1380.54" traveltime="279.27" overlapTraveltime="279.83" density="0.53" occupancy="0.27" waitingTime="0.00" speed="9.28" departed="6" arrived="0" entered="0" left="4" laneChangedFrom="0" laneChangedTo="0"/>
        <edge id="35" sampledSeconds="2528.84" traveltime="94.98" overlapTraveltime="95.26" density="1.06" occupancy="0.53" waitingTime="0.00" speed="25.15" departed="7" arrived="0" entered="24" left="23" laneChangedFrom="0" laneChangedTo="0"/>
        <edge id="36" sampledSeconds="466.87" traveltime="115.97" overlapTraveltime="117.09" density="0.29" occupancy="0.15" waitingTime="0.00" speed="13.63" departed="4" arrived="0" entered="0" left="4" laneChangedFrom="0" laneChangedTo="0"/>
        <edge id="37" sampledSeconds="8615.10" traveltime="188.83" overlapTraveltime="189.08" density="1.60" occupancy="0.80" waitingTime="0.00" speed="28.54" departed="4" arrived="18" entered="49" left="21" laneChangedFrom="0" laneChangedTo="0"/>
        <edge id="38" sampledSeconds="4462.56" traveltime="189.98" overlapTraveltime="190.67" density="0.83" occupancy="0.41" waitingTime="5.00" speed="28.31" departed="5" arrived="0" entered="21" left="22" laneChangedFrom="0" laneChangedTo="0"/>
        <edge id="39" sampledSeconds="2813.55" traveltime="101.21" overlapTraveltime="102.03" density="1.77" occupancy="0.88" waitingTime="1.00" speed="15.65" departed="8" arrived="0" entered="21" left="27" laneChangedFrom="0" laneChangedTo="0"/>
        <edge id="4" sampledSeconds="1379.38" traveltime="80.83" overlapTraveltime="81.37" density="0.99" occupancy="0.50" waitingTime="0.00" speed="17.17" departed="13" arrived="0" entered="4" left="17" laneChangedFrom="0" laneChangedTo="0"/>
        <edge id="40" sampledSeconds="2756.39" traveltime="279.08" overlapTraveltime="279.79" density="1.06" occupancy="0.53" waitingTime="0.00" speed="9.28" departed="6" arrived="0" entered="6" left="9" laneChangedFrom="0" laneChangedTo="0"/>
        <edge id="41" sampledSeconds="3121.29" traveltime="197.90" overlapTraveltime="198.56" density="1.74" occupancy="0.87" waitingTime="0.00" speed="9.04" departed="9" arrived="0" entered="9" left="14" laneChangedFrom="0" laneChangedTo="0"/>
        <edge id="42" sampledSeconds="695.91" traveltime="130.43" overlapTraveltime="131.05" density="0.58" occupancy="0.29" waitingTime="0.00" speed="9.12" departed="7" arrived="0" entered="0" left="5" laneChangedFrom="0" laneChangedTo="0"/>
        <edge id="43" sampledSeconds="3102.37" traveltime="346.74" overlapTraveltime="347.57" density="1.20" occupancy="0.60" waitingTime="1.00" speed="7.46" departed="11" arrived="0" entered="0" left="7" laneChangedFrom="0" laneChangedTo="0"/>
        <edge id="44" sampledSeconds="1042.98" traveltime="198.66" overlapTraveltime="199.39" density="0.58" occupancy="0.29" waitingTime="0.00" speed="9.01" departed="5" arrived="0" entered="2" left="5" laneChangedFrom="0" laneChangedTo="0"/>
        <edge id="45" sampledSeconds="4056.89" traveltime="127.95" overlapTraveltime="128.34" density="2.04" occupancy="1.02" waitingTime="0.00" speed="15.55" departed="4" arrived="0" entered="32" left="28" laneChangedFrom="0" laneChangedTo="0"/>
        <edge id="46" sampledSeconds="2437.89" traveltime="71.44" overlapTraveltime="71.99" density="2.05" occupancy="1.02" waitingTime="0.00" speed="16.61" departed="5" arrived="0" entered="33" left="29" laneChangedFrom="0" laneChangedTo="0"/>
        <edge id="47" sampledSeconds="4847.67" traveltime="119.16" overlapTraveltime="119.64" density="4.07" occupancy="2.04" waitingTime="0.00" speed="9.99" departed="5" arrived="0" entered="38" left="37" laneChangedFrom="0" laneChangedTo="0"/>
        <edge id="48" sampledSeconds="1834.80" traveltime="173.63" overlapTraveltime="175.00" density="0.93" occupancy="0.46" waitingTime="4.00" speed="11.35" departed="9" arrived="0" entered="3" left="9" laneChangedFrom="0" laneChangedTo="0"/>
        <edge id="49" sampledSeconds="1755.57" traveltime="40.94" overlapTraveltime="41.30" density="1.48" occupancy="0.74" waitingTime="0.00" speed="28.88" departed="10" arrived="0" entered="33" left="42" laneChangedFrom="0" laneChangedTo="0"/>
        <edge id="5" sampledSeconds="1986.69" traveltime="58.58" overlapTraveltime="58.83" density="1.43" occupancy="0.71" waitingTime="0.00" speed="23.75" departed="6" arrived="11" entered="29" left="22" laneChangedFrom="0" laneChangedTo="0"/>
        <edge id="50" sampledSeconds="4067.02" traveltime="159.41" overlapTraveltime="160.15" density="2.04" occupancy="1.02" waitingTime="10.00" speed="12.45" departed="9" arrived="0" entered="17" left="25" laneChangedFrom="0" laneChangedTo="0"/>
        <edge id="51" sampledSeconds="616.29" traveltime="283.56" overlapTraveltime="284.30" density="0.27" occupancy="0.13" waitingTime="0.00" speed="8.15" departed="3" arrived="0" entered="0" left="2" laneChangedFrom="0" laneChangedTo="0"/>
        <edge id="52" sampledSeconds="1784.31" traveltime="40.40" overlapTraveltime="40.89" density="1.50" occupancy="0.75" waitingTime="2.00" speed="29.18" departed="10" arrived="0" entered="36" left="41" laneChangedFrom="0" laneChangedTo="0"/>
        <edge id="53" sampledSeconds="5119.11" traveltime="110.90" overlapTraveltime="111.43" density="3.68" occupancy="1.84" waitingTime="0.00" speed="12.54" departed="11" arrived="0" entered="39" left="40" laneChangedFrom="0" laneChangedTo="0"/>
        <edge id="54" sampledSeconds="1660.37" traveltime="48.75" overlapTraveltime="49.02" density="1.39" occupancy="0.70" waitingTime="0.00" speed="24.42" departed="4" arrived="17" entered="30" left="16" laneChangedFrom="0" laneChangedTo="0"/>
        <edge id="55" sampledSeconds="1579.27" traveltime="161.04" overlapTraveltime="161.98" density="0.79" occupancy="0.40" waitingTime="4.00" speed="12.31" departed="10" arrived="0" entered="1" left="9" laneChangedFrom="0" laneChangedTo="0"/>
        <edge id="56" sampledSeconds="7018.11" traveltime="215.38" overlapTraveltime="215.70" density="1.22" occupancy="0.61" waitingTime="0.00" speed="26.60" departed="9" arrived="9" entered="33" left="15" laneChangedFrom="0" laneChangedTo="0"/>
        <edge id="57" sampledSeconds="2929.56" traveltime="129.73" overlapTraveltime="130.48" density="1.47" occupancy="0.74" waitingTime="9.00" speed="15.29" departed="4" arrived="0" entered="20" left="20" laneChangedFrom="0" laneChangedTo="0"/>
        <edge id="58" sampledSeconds="3645.78" traveltime="110.51" overlapTraveltime="110.90" density="2.62" occupancy="1.31" waitingTime="0.00" speed="12.60" departed="7" arrived="0" entered="27" left="32" laneChangedFrom="0" laneChangedTo="0"/>
        <edge id="59" sampledSeconds="5137.50" traveltime="240.74" overlapTraveltime="241.26" density="1.85" occupancy="0.93" waitingTime="0.00" speed="11.53" departed="5" arrived="11" entered="24" left="3" laneChangedFrom="0" laneChangedTo="0"/>
        <edge id="6" sampledSeconds="1826.81" traveltime="95.03" overlapTraveltime="95.44" density="1.15" occupancy="0.57" waitingTime="0.00" speed="16.72" departed="7" arrived="0" entered="14" left="19" laneChangedFrom="0" laneChangedTo="0"/>
        <edge id="60" sampledSeconds="3814.01" traveltime="216.13" overlapTraveltime="216.44" density="0.67" occupancy="0.33" waitingTime="0.00" speed="26.51" departed="6" arrived="0" entered="14" left="16" laneChangedFrom="0" laneChangedTo="0"/>
        <edge id="61" sampledSeconds="1190.08" traveltime="243.41" overlapTraveltime="244.17" density="0.43" occupancy="0.21" waitingTime="2.00" speed="11.39" departed="4" arrived="0" entered="1" left="4" laneChangedFrom="0" laneChangedTo="0"/>
        <edge id="62" sampledSeconds="4062.29" traveltime="223.08" overlapTraveltime="224.00" density="2.05" occupancy="1.02" waitingTime="20.00" speed="8.88" departed="5" arrived="0" entered="15" left="17" laneChangedFrom="0" laneChangedTo="0"/>
        <edge id="63" sampledSeconds="1834.91" traveltime="218.13" overlapTraveltime="218.92" density="0.72" occupancy="0.36" waitingTime="0.00" speed="11.64" departed="5" arrived="0" entered="4" left="8" laneChangedFrom="0" laneChangedTo="0"/>
        <edge id="64" sampledSeconds="4983.18" traveltime="221.33" overlapTraveltime="221.90" density="2.51" occupancy="1.26" waitingTime="0.00" speed="8.97" departed="4" arrived="8" entered="23" left="8" laneChangedFrom="0" laneChangedTo="0"/>
        <edge id="65" sampledSeconds="3186.79" traveltime="126.71" overlapTraveltime="127.15" density="2.01" occupancy="1.00" waitingTime="0.00" speed="12.52" departed="11" arrived="0" entered="15" left="23" laneChangedFrom="0" laneChangedTo="0"/>
        <edge id="66" sampledSeconds="4404.16" traveltime="127.39" overlapTraveltime="127.77" density="2.46" occupancy="1.23" waitingTime="0.00" speed="14.05" departed="7" arrived="0" entered="30" left="30" laneChangedFrom="0" laneChangedTo="0"/>
        <edge id="67" sampledSeconds="1997.05" traveltime="71.44" overlapTraveltime="71.92" density="1.68" occupancy="0.84" waitingTime="0.00" speed="16.62" departed="8" arrived="0" entered="21" left="26" laneChangedFrom="0" laneChangedTo="0"/>
        <edge id="68" sampledSeconds="6709.89" traveltime="254.59" overlapTraveltime="255.14" density="2.64" occupancy="1.32" waitingTime="0.00" speed="9.98" departed="6" arrived="10" entered="26" left="8" laneChangedFrom="0" laneChangedTo="0"/>
        <edge id="69" sampledSeconds="1873.80" traveltime="60.21" overlapTraveltime="60.58" density="1.18" occupancy="0.59" waitingTime="0.00" speed="26.28" departed="8" arrived="0" entered="25" left="30" laneChangedFrom="0" laneChangedTo="0"/>
        <edge id="7" sampledSeconds="3187.21" traveltime="94.92" overlapTraveltime="95.12" density="1.33" occupancy="0.67" waitingTime="0.00" speed="25.18" departed="5" arrived="0" entered="29" left="32" laneChangedFrom="0" laneChangedTo="0"/>
        <edge id="70" sampledSeconds="947.75" traveltime="174.13" overlapTraveltime="174.79" density="0.53" occupancy="0.26" waitingTime="0.00" speed="10.27" departed="6" arrived="0" entered="0" left="5" laneChangedFrom="0" laneChangedTo="0"/>
        <edge id="71" sampledSeconds="817.74" traveltime="130.18" overlapTraveltime="130.90" density="0.69" occupancy="0.34" waitingTime="0.00" speed="9.13" departed="7" arrived="0" entered="0" left="6" laneChangedFrom="0" laneChangedTo="0"/>
        <edge id="72" sampledSeconds="2638.78" traveltime="173.54" overlapTraveltime="174.42" density="1.47" occupancy="0.74" waitingTime="12.00" speed="10.29" departed="6" arrived="0" entered="12" left="12" laneChangedFrom="0" laneChangedTo="0"/>
        <edge id="73" sampledSeconds="1661.28" traveltime="155.23" overlapTraveltime="156.17" density="1.04" occupancy="0.52" waitingTime="6.00" speed="10.22" departed="7" arrived="0" entered="6" left="9" laneChangedFrom="0" laneChangedTo="0"/>
        <edge id="74" sampledSeconds="4509.91" traveltime="100.66" overlapTraveltime="100.99" density="2.83" occupancy="1.42" waitingTime="0.00" speed="15.81" departed="5" arrived="18" entered="48" left="21" laneChangedFrom="0" laneChangedTo="0"/>
        <edge id="75" sampledSeconds="2987.31" traveltime="128.90" overlapTraveltime="129.61" density="1.67" occupancy="0.83" waitingTime="1.00" speed="13.85" departed="8" arrived="0" entered="17" left="21" laneChangedFrom="0" laneChangedTo="0"/>
        <edge id="76" sampledSeconds="1269.83" traveltime="154.87" overlapTraveltime="155.51" density="0.80" occupancy="0.40" waitingTime="0.00" speed="10.26" departed="8" arrived="0" entered="1" left="8" laneChangedFrom="0" laneChangedTo="0"/>
        <edge id="8" sampledSeconds="3682.83" traveltime="95.50" overlapTraveltime="96.17" density="2.32" occupancy="1.16" waitingTime="0.00" speed="16.59" departed="10" arrived="0" entered="29" left="37" laneChangedFrom="0" laneChangedTo="0"/>
        <edge id="9" sampledSeconds="2159.76" traveltime="84.99" overlapTraveltime="85.48" density="1.21" occupancy="0.60" waitingTime="2.00" speed="21.01" departed="6" arrived="0" entered="20" left="24" laneChangedFrom="0" laneChangedTo="0"/>
    </interval>
    <interval begin="1000.00" end="2000.00" id="2">
        <edge id="1" sampledSeconds="13437.29" traveltime="222.05" overlapTraveltime="222.30" density="2.49" occupancy="1.25" waitingTime="0.00" speed="24.28" departed="8" arrived="41" entered="56" left="17" laneChangedFrom="0" laneChangedTo="0"/>
        <edge id="10" sampledSeconds="2565.96" traveltime="231.67" overlapTraveltime="232.53" density="1.07" occupancy="0.54" waitingTime="2.00" speed="10.30" departed="11" arrived="0" entered="0" left="12" laneChangedFrom="0" laneChangedTo="0"/>
        <edge id="11" sampledSeconds="3876.80" traveltime="85.57" overlapTraveltime="85.91" density="2.17" occupancy="1.08" waitingTime="0.00" speed="20.90" departed="12" arrived="0" entered="35" left="41" laneChangedFrom="0" laneChangedTo="0"/>
        <edge id="12" sampledSeconds="6234.80" traveltime="126.66" overlapTraveltime="127.45" density="3.13" occupancy="1.57" waitingTime="10.00" speed="15.66" departed="4" arrived="0" entered="47" left="47" laneChangedFrom="0" laneChangedTo="0"/>
        <edge id="13" sampledSeconds="689.38" traveltime="132.28" overlapTraveltime="133.00" density="0.58" occupancy="0.29" waitingTime="0.00" speed="8.99" departed="6" arrived="0" entered="0" left="4" laneChangedFrom="0" laneChangedTo="0"/>
        <edge id="14" sampledSeconds="6762.69" traveltime="78.06" overlapTraveltime="78.36" density="4.86" occupancy="2.43" waitingTime="0.00" speed="17.83" departed="8" arrived="32" entered="79" left="52" laneChangedFrom="0" laneChangedTo="0"/>
        <edge id="15" sampledSeconds="3947.45" traveltime="126.07" overlapTraveltime="126.46" density="1.98" occupancy="0.99" waitingTime="0.00" speed="15.78" departed="7" arrived="0" entered="23" left="32" laneChangedFrom="0" laneChangedTo="0"/>
        <edge id="16" sampledSeconds="3198.13" traveltime="63.81" overlapTraveltime="64.59" density="2.69" occupancy="1.34" waitingTime="0.00" speed="18.51" departed="3" arrived="0" entered="47" left="50" laneChangedFrom="0" laneChangedTo="0"/>
        <edge id="17" sampledSeconds="3358.60" traveltime="130.20" overlapTraveltime="131.03" density="1.69" occupancy="0.84" waitingTime="2.00" speed="15.24" departed="8" arrived="0" entered="16" left="27" laneChangedFrom="0" laneChangedTo="0"/>
        <edge id="18" sampledSeconds="1858.86" traveltime="49.41" overlapTraveltime="50.26" density="1.56" occupancy="0.78" waitingTime="6.00" speed="23.82" departed="8" arrived="0" entered="31" left="36" laneChangedFrom="0" laneChangedTo="0"/>
        <edge id="19" sampledSeconds="5075.26" traveltime="63.16" overlapTraveltime="63.60" density="4.26" occupancy="2.13" waitingTime="0.00" speed="18.80" departed="3" arrived="0" entered="77" left="80" laneChangedFrom="0" laneChangedTo="0"/>
        <edge id="2" sampledSeconds="659.40" traveltime="59.48" overlapTraveltime="60.03" density="0.47" occupancy="0.24" waitingTime="0.00" speed="23.27" departed="4" arrived="0" entered="7" left="11" laneChangedFrom="0" laneChangedTo="0"/>
        <edge id="20" sampledSeconds="9256.23" traveltime="128.68" overlapTraveltime="129.01" density="4.65" occupancy="2.32" waitingTime="0.00" speed="15.48" departed="12" arrived="40" entered="58" left="34" laneChangedFrom="0" laneChangedTo="0"/>
        <edge id="21" sampledSeconds="1910.41" traveltime="256.98" overlapTraveltime="257.73" density="0.96" occupancy="0.48" waitingTime="0.00" speed="7.74" departed="7" arrived="0" entered="0" left="7" laneChangedFrom="0" laneChangedTo="0"/>
        <edge id="22" sampledSeconds="5014.73" traveltime="119.67" overlapTraveltime="120.23" density="4.21" occupancy="2.11" waitingTime="0.00" speed="9.94" departed="14" arrived="0" entered="28" left="43" laneChangedFrom="0" laneChangedTo="0"/>
        <edge id="23" sampledSeconds="1518.09" traveltime="131.80" overlapTraveltime="132.67" density="1.28" occupancy="0.64" waitingTime="0.00" speed="9.01" departed="3" arrived="0" entered="8" left="12" laneChangedFrom="0" laneChangedTo="0"/>
        <edge id="24" sampledSeconds="3879.95" traveltime="259.41" overlapTraveltime="260.41" density="1.95" occupancy="0.97" waitingTime="25.00" speed="7.66" departed="11" arrived="0" entered="5" left="13" laneChangedFrom="0" laneChangedTo="0"/>
        <edge id="25" sampledSeconds="2857.35" traveltime="226.14" overlapTraveltime="227.03" density="2.40" occupancy="1.20" waitingTime="0.00" speed="5.27" departed="7" arrived="0" entered="5" left="14" laneChangedFrom="0" laneChangedTo="0"/>
        <edge id="26" sampledSeconds="1616.13" traveltime="226.58" overlapTraveltime="227.46" density="1.36" occupancy="0.68" waitingTime="0.00" speed="5.26" departed="8" arrived="0" entered="0" left="7" laneChangedFrom="0" laneChangedTo="0"/>
        <edge id="27" sampledSeconds="3932.33" traveltime="277.90" overlapTraveltime="278.63" density="2.20" occupancy="1.10" waitingTime="0.00" speed="6.44" departed="4" arrived="0" entered="11" left="14" laneChangedFrom="0" laneChangedTo="0"/>
        <edge id="28" sampledSeconds="8011.52" traveltime="345.46" overlapTraveltime="346.08" density="3.10" occupancy="1.55" waitingTime="0.00" speed="7.49" departed="6" arrived="0" entered="14" left="28" laneChangedFrom="0" laneChangedTo="0"/>
        <edge id="29" sampledSeconds="5716.34" traveltime="176.35" overlapTraveltime="177.28" density="2.88" occupancy="1.44" waitingTime="86.00" speed="11.21" departed="10" arrived="0" entered="26" left="30" laneChangedFrom="0" laneChangedTo="0"/>
        <edge id="3" sampledSeconds="13523.27" traveltime="221.62" overlapTraveltime="222.08" density="2.51" occupancy="1.25" waitingTime="2.00" speed="24.31" departed="6" arrived="38" entered="51" left="28" laneChangedFrom="0" laneChangedTo="0"/>
        <edge id="30" sampledSeconds="2992.73" traveltime="284.49" overlapTraveltime="285.60" density="1.29" occupancy="0.65" waitingTime="18.00" speed="8.11" departed="9" arrived="0" entered="0" left="12" laneChangedFrom="0" laneChangedTo="0"/>
        <edge id="31" sampledSeconds="3236.81" traveltime="230.89" overlapTraveltime="231.60" density="1.35" occupancy="0.68" waitingTime="0.00" speed="10.34" departed="9" arrived="0" entered="6" left="13" laneChangedFrom="0" laneChangedTo="0"/>
        <edge id="32" sampledSeconds="3151.03" traveltime="278.40" overlapTraveltime="279.10" density="1.76" occupancy="0.88" waitingTime="0.00" speed="6.43" departed="8" arrived="0" entered="5" left="11" laneChangedFrom="0" laneChangedTo="0"/>
        <edge id="33" sampledSeconds="3777.53" traveltime="114.84" overlapTraveltime="115.63" density="2.38" occupancy="1.19" waitingTime="6.00" speed="13.80" departed="3" arrived="0" entered="29" left="32" laneChangedFrom="0" laneChangedTo="0"/>
        <edge id="34" sampledSeconds="1790.21" traveltime="278.93" overlapTraveltime="279.62" density="0.69" occupancy="0.35" waitingTime="0.00" speed="9.28" departed="4" arrived="0" entered="4" left="6" laneChangedFrom="0" laneChangedTo="0"/>
        <edge id="35" sampledSeconds="4466.25" traveltime="93.55" overlapTraveltime="93.93" density="1.87" occupancy="0.93" waitingTime="4.00" speed="25.50" departed="5" arrived="0" entered="40" left="49" laneChangedFrom="0" laneChangedTo="0"/>
        <edge id="36" sampledSeconds="1222.02" traveltime="115.49" overlapTraveltime="116.15" density="0.77" occupancy="0.38" waitingTime="0.00" speed="13.74" departed="9" arrived="0" entered="3" left="8" laneChangedFrom="0" laneChangedTo="0"/>
        <edge id="37" sampledSeconds="13118.90" traveltime="188.77" overlapTraveltime="188.98" density="2.43" occupancy="1.22" waitingTime="0.00" speed="28.56" departed="5" arrived="46" entered="63" left="25" laneChangedFrom="0" laneChangedTo="0"/>
        <edge id="38" sampledSeconds="9096.28" traveltime="189.16" overlapTraveltime="190.04" density="1.69" occupancy="0.84" waitingTime="14.00" speed="28.40" departed="3" arrived="0" entered="46" left="46" laneChangedFrom="0" laneChangedTo="0"/>
        <edge id="39" sampledSeconds="3366.97" traveltime="100.39" overlapTraveltime="101.19" density="2.11" occupancy="1.06" waitingTime="5.00" speed="15.78" departed="5" arrived="0" entered="28" left="33" laneChangedFrom="0" laneChangedTo="0"/>
        <edge id="4" sampledSeconds="1751.84" traveltime="78.72" overlapTraveltime="79.09" density="1.26" occupancy="0.63" waitingTime="0.00" speed="17.66" departed="5" arrived="0" entered="18" left="22" laneChangedFrom="0" laneChangedTo="0"/>
        <edge id="40" sampledSeconds="2763.05" traveltime="278.58" overlapTraveltime="279.31" density="1.07" occupancy="0.53" waitingTime="0.00" speed="9.29" departed="5" arrived="0" entered="6" left="10" laneChangedFrom="0" laneChangedTo="0"/>
        <edge id="41" sampledSeconds="4815.93" traveltime="198.17" overlapTraveltime="198.99" density="2.69" occupancy="1.34" waitingTime="11.00" speed="9.02" departed="10" arrived="0" entered="13" left="23" laneChangedFrom="0" laneChangedTo="0"/>
        <edge id="42" sampledSeconds="1511.66" traveltime="129.35" overlapTraveltime="130.07" density="1.27" occupancy="0.63" waitingTime="0.00" speed="9.19" departed="9" arrived="0" entered="1" left="12" laneChangedFrom="0" laneChangedTo="0"/>
        <edge id="43" sampledSeconds="2703.08" traveltime="346.64" overlapTraveltime="347.37" density="1.04" occupancy="0.52" waitingTime="0.00" speed="7.46" departed="8" arrived="0" entered="0" left="8" laneChangedFrom="0" laneChangedTo="0"/>
        <edge id="44" sampledSeconds="1466.58" traveltime="198.04" overlapTraveltime="198.71" density="0.82" occupancy="0.41" waitingTime="0.00" speed="9.04" departed="6" arrived="0" entered="0" left="7" laneChangedFrom="0" laneChangedTo="0"/>
        <edge id="45" sampledSeconds="7018.77" traveltime="127.84" overlapTraveltime="128.23" density="3.53" occupancy="1.76" waitingTime="0.00" speed="15.56" departed="3" arrived="0" entered="52" left="55" laneChangedFrom="0" laneChangedTo="0"/>