<?xml version="1.0" encoding="UTF-8"?>

<!-- generated on 02/12/18 15:47:19 by SUMO Version 0.30.0
<?xml version="1.0" encoding="UTF-8"?>

<configuration xmlns:xsi="http://www.w3.org/2001/XMLSchema-instance" xsi:noNamespaceSchemaLocation="http://sumo.dlr.de/xsd/sumoConfiguration.xsd">

    <input>
        <net-file value="C:/Users/Shekar/Desktop/laptop/sumo_sim/sioux_falls/config/../network/sf_net.net.xml"/>
        <route-files value="C:/Users/Shekar/Desktop/laptop/sumo_sim/sioux_falls/config/../trips/trip.xml"/>
        <additional-files value="C:/Users/Shekar/Desktop/laptop/sumo_sim/sioux_falls/config/additional_42__0_1000.xml"/>
    </input>

    <output>
        <summary-output value="C:/Users/Shekar/Desktop/laptop/sumo_sim/sioux_falls/config/../output/summary_42__0_1000.xml"/>
    </output>

    <processing>
        <time-to-teleport value="300"/>
    </processing>

    <report>
        <log value="C:/Users/Shekar/Desktop/laptop/sumo_sim/sioux_falls/config/../output/report_42__0_1000.xml"/>
    </report>

</configuration>
-->

<meandata xmlns:xsi="http://www.w3.org/2001/XMLSchema-instance" xsi:noNamespaceSchemaLocation="http://sumo.dlr.de/xsd/meandata_file.xsd">
    <interval begin="0.00" end="1000.00" id="1">
        <edge id="1" sampledSeconds="5435.53" traveltime="222.57" overlapTraveltime="222.92" density="1.01" occupancy="0.50" waitingTime="2.00" speed="24.22" departed="6" arrived="10" entered="24" left="8" laneChangedFrom="0" laneChangedTo="0"/>
        <edge id="10" sampledSeconds="1646.90" traveltime="231.42" overlapTraveltime="232.07" density="0.69" occupancy="0.34" waitingTime="0.00" speed="10.32" departed="8" arrived="0" entered="0" left="5" laneChangedFrom="0" laneChangedTo="0"/>
        <edge id="11" sampledSeconds="2230.30" traveltime="84.80" overlapTraveltime="85.11" density="1.25" occupancy="0.62" waitingTime="0.00" speed="21.10" departed="4" arrived="0" entered="23" left="26" laneChangedFrom="0" laneChangedTo="0"/>
        <edge id="12" sampledSeconds="4574.66" traveltime="126.81" overlapTraveltime="127.55" density="2.30" occupancy="1.15" waitingTime="8.00" speed="15.65" departed="5" arrived="0" entered="32" left="35" laneChangedFrom="0" laneChangedTo="0"/>
        <edge id="13" sampledSeconds="1060.59" traveltime="132.45" overlapTraveltime="133.14" density="0.89" occupancy="0.45" waitingTime="0.00" speed="8.98" departed="8" arrived="0" entered="0" left="8" laneChangedFrom="0" laneChangedTo="0"/>
        <edge id="14" sampledSeconds="4330.47" traveltime="78.09" overlapTraveltime="78.36" density="3.11" occupancy="1.56" waitingTime="0.00" speed="17.83" departed="5" arrived="18" entered="56" left="32" laneChangedFrom="0" laneChangedTo="0"/>
        <edge id="15" sampledSeconds="2897.77" traveltime="126.64" overlapTraveltime="127.04" density="1.46" occupancy="0.73" waitingTime="0.00" speed="15.71" departed="10" arrived="0" entered="15" left="21" laneChangedFrom="0" laneChangedTo="0"/>
        <edge id="16" sampledSeconds="2560.03" traveltime="63.71" overlapTraveltime="64.35" density="2.15" occupancy="1.08" waitingTime="0.00" speed="18.58" departed="5" arrived="0" entered="36" left="38" laneChangedFrom="0" laneChangedTo="0"/>
        <edge id="17" sampledSeconds="3337.42" traveltime="130.36" overlapTraveltime="131.07" density="1.68" occupancy="0.84" waitingTime="1.00" speed="15.24" departed="11" arrived="0" entered="17" left="24" laneChangedFrom="0" laneChangedTo="0"/>
        <edge id="18" sampledSeconds="1140.89" traveltime="48.64" overlapTraveltime="49.64" density="0.96" occupancy="0.48" waitingTime="12.00" speed="24.11" departed="4" arrived="0" entered="19" left="23" laneChangedFrom="0" laneChangedTo="0"/>
        <edge id="19" sampledSeconds="3713.84" traveltime="63.74" overlapTraveltime="64.14" density="3.12" occupancy="1.56" waitingTime="0.00" speed="18.64" departed="10" arrived="0" entered="51" left="55" laneChangedFrom="0" laneChangedTo="0"/>
        <edge id="2" sampledSeconds="744.04" traveltime="61.40" overlapTraveltime="62.14" density="0.53" occupancy="0.27" waitingTime="0.00" speed="22.48" departed="7" arrived="0" entered="5" left="12" laneChangedFrom="0" laneChangedTo="0"/>
        <edge id="20" sampledSeconds="5070.28" traveltime="129.60" overlapTraveltime="130.00" density="2.55" occupancy="1.27" waitingTime="0.00" speed="15.36" departed="9" arrived="15" entered="35" left="20" laneChangedFrom="0" laneChangedTo="0"/>
        <edge id="21" sampledSeconds="907.50" traveltime="257.12" overlapTraveltime="257.82" density="0.46" occupancy="0.23" waitingTime="0.00" speed="7.74" departed="4" arrived="0" entered="0" left="3" laneChangedFrom="0" laneChangedTo="0"/>
        <edge id="22" sampledSeconds="3222.20" traveltime="119.32" overlapTraveltime="119.82" density="2.71" occupancy="1.35" waitingTime="0.00" speed="9.98" departed="5" arrived="0" entered="24" left="25" laneChangedFrom="0" laneChangedTo="0"/>
        <edge id="23" sampledSeconds="1370.19" traveltime="131.90" overlapTraveltime="132.68" density="1.15" occupancy="0.58" waitingTime="1.00" speed="9.01" departed="6" arrived="0" entered="6" left="9" laneChangedFrom="0" laneChangedTo="0"/>
        <edge id="24" sampledSeconds="2596.78" traveltime="258.89" overlapTraveltime="260.08" density="1.30" occupancy="0.65" waitingTime="16.00" speed="7.67" departed="6" arrived="0" entered="4" left="10" laneChangedFrom="0" laneChangedTo="0"/>
        <edge id="25" sampledSeconds="2085.74" traveltime="226.46" overlapTraveltime="227.35" density="1.75" occupancy="0.88" waitingTime="0.00" speed="5.26" departed="8" arrived="0" entered="3" left="6" laneChangedFrom="0" laneChangedTo="0"/>
        <edge id="26" sampledSeconds="455.25" traveltime="227.65" overlapTraveltime="228.60" density="0.38" occupancy="0.19" waitingTime="0.00" speed="5.23" departed="2" arrived="0" entered="0" left="2" laneChangedFrom="0" laneChangedTo="0"/>
        <edge id="27" sampledSeconds="2241.70" traveltime="278.12" overlapTraveltime="278.86" density="1.25" occupancy="0.63" waitingTime="0.00" speed="6.44" departed="4" arrived="0" entered="7" left="6" laneChangedFrom="0" laneChangedTo="0"/>
        <edge id="28" sampledSeconds="4754.54" traveltime="346.31" overlapTraveltime="347.00" density="1.84" occupancy="0.92" waitingTime="0.00" speed="7.47" departed="11" arrived="0" entered="10" left="7" laneChangedFrom="0" laneChangedTo="0"/>
        <edge id="29" sampledSeconds="3211.48" traveltime="173.45" overlapTraveltime="174.27" density="1.62" occupancy="0.81" waitingTime="3.00" speed="11.40" departed="4" arrived="0" entered="15" left="17" laneChangedFrom="0" laneChangedTo="0"/>
        <edge id="3" sampledSeconds="6126.66" traveltime="221.64" overlapTraveltime="221.96" density="1.14" occupancy="0.57" waitingTime="0.00" speed="24.32" departed="3" arrived="10" entered="36" left="7" laneChangedFrom="0" laneChangedTo="0"/>
        <edge id="30" sampledSeconds="855.91" traveltime="284.06" overlapTraveltime="284.73" density="0.37" occupancy="0.19" waitingTime="0.00" speed="8.14" departed="6" arrived="0" entered="0" left="1" laneChangedFrom="0" laneChangedTo="0"/>
        <edge id="31" sampledSeconds="1031.85" traveltime="232.11" overlapTraveltime="232.98" density="0.43" occupancy="0.22" waitingTime="2.00" speed="10.28" departed="4" arrived="0" entered="1" left="4" laneChangedFrom="0" laneChangedTo="0"/>
        <edge id="32" sampledSeconds="2375.54" traveltime="278.49" overlapTraveltime="279.22" density="1.33" occupancy="0.66" waitingTime="0.00" speed="6.43" departed="6" arrived="0" entered="3" left="8" laneChangedFrom="0" laneChangedTo="0"/>
        <edge id="33" sampledSeconds="2322.81" traveltime="116.16" overlapTraveltime="117.09" density="1.46" occupancy="0.73" waitingTime="11.00" speed="13.63" departed="4" arrived="0" entered="19" left="18" laneChangedFrom="0" laneChangedTo="0"/>
        <edge id="34" sampledSeconds="1382.80" traveltime="279.55" overlapTraveltime="280.26" density="0.53" occupancy="0.27" waitingTime="0.00" speed="9.26" departed="6" arrived="0" entered="0" left="4" laneChangedFrom="0" laneChangedTo="0"/>
        <edge id="35" sampledSeconds="2509.49" traveltime="95.00" overlapTraveltime="95.27" density="1.05" occupancy="0.52" waitingTime="0.00" speed="25.14" departed="7" arrived="0" entered="24" left="23" laneChangedFrom="0" laneChangedTo="0"/>
        <edge id="36" sampledSeconds="545.86" traveltime="115.38" overlapTraveltime="117.30" density="0.34" occupancy="0.17" waitingTime="4.00" speed="13.60" departed="4" arrived="0" entered="1" left="4" laneChangedFrom="0" laneChangedTo="0"/>
        <edge id="37" sampledSeconds="8383.57" traveltime="188.76" overlapTraveltime="189.02" density="1.55" occupancy="0.78" waitingTime="0.00" speed="28.55" departed="4" arrived="18" entered="47" left="20" laneChangedFrom="0" laneChangedTo="0"/>
        <edge id="38" sampledSeconds="4653.29" traveltime="190.06" overlapTraveltime="190.42" density="0.86" occupancy="0.43" waitingTime="0.00" speed="28.34" departed="5" arrived="0" entered="22" left="23" laneChangedFrom="0" laneChangedTo="0"/>
        <edge id="39" sampledSeconds="2725.19" traveltime="101.41" overlapTraveltime="102.51" density="1.71" occupancy="0.86" waitingTime="6.00" speed="15.58" departed="8" arrived="0" entered="20" left="26" laneChangedFrom="0" laneChangedTo="0"/>
        <edge id="4" sampledSeconds="1376.78" traveltime="80.73" overlapTraveltime="81.21" density="0.99" occupancy="0.49" waitingTime="0.00" speed="17.20" departed="13" arrived="0" entered="4" left="17" laneChangedFrom="0" laneChangedTo="0"/>
        <edge id="40" sampledSeconds="2480.82" traveltime="279.67" overlapTraveltime="280.35" density="0.96" occupancy="0.48" waitingTime="0.00" speed="9.26" departed="6" arrived="0" entered="5" left="8" laneChangedFrom="0" laneChangedTo="0"/>
        <edge id="41" sampledSeconds="3317.22" traveltime="197.59" overlapTraveltime="198.30" density="1.85" occupancy="0.93" waitingTime="0.00" speed="9.05" departed="9" arrived="0" entered="10" left="15" laneChangedFrom="0" laneChangedTo="0"/>
        <edge id="42" sampledSeconds="695.70" traveltime="130.21" overlapTraveltime="130.83" density="0.58" occupancy="0.29" waitingTime="0.00" speed="9.14" departed="7" arrived="0" entered="0" left="5" laneChangedFrom="0" laneChangedTo="0"/>
        <edge id="43" sampledSeconds="3115.33" traveltime="347.91" overlapTraveltime="348.84" density="1.20" occupancy="0.60" waitingTime="4.00" speed="7.43" departed="11" arrived="0" entered="0" left="7" laneChangedFrom="0" laneChangedTo="0"/>
        <edge id="44" sampledSeconds="840.70" traveltime="198.24" overlapTraveltime="198.97" density="0.47" occupancy="0.23" waitingTime="0.00" speed="9.02" departed="5" arrived="0" entered="1" left="4" laneChangedFrom="0" laneChangedTo="0"/>
        <edge id="45" sampledSeconds="4054.01" traveltime="128.15" overlapTraveltime="128.54" density="2.04" occupancy="1.02" waitingTime="0.00" speed="15.52" departed="4" arrived="0" entered="32" left="28" laneChangedFrom="0" laneChangedTo="0"/>
        <edge id="46" sampledSeconds="2552.63" traveltime="71.57" overlapTraveltime="72.11" density="2.14" occupancy="1.07" waitingTime="0.00" speed="16.58" departed="5" arrived="0" entered="35" left="30" laneChangedFrom="0" laneChangedTo="0"/>
        <edge id="47" sampledSeconds="4868.97" traveltime="119.25" overlapTraveltime="119.76" density="4.09" occupancy="2.04" waitingTime="0.00" speed="9.98" departed="5" arrived="0" entered="38" left="38" laneChangedFrom="0" laneChangedTo="0"/>
        <edge id="48" sampledSeconds="1837.98" traveltime="173.60" overlapTraveltime="174.67" density="0.93" occupancy="0.46" waitingTime="2.00" speed="11.38" departed="9" arrived="0" entered="3" left="9" laneChangedFrom="0" laneChangedTo="0"/>
        <edge id="49" sampledSeconds="1783.23" traveltime="40.66" overlapTraveltime="41.01" density="1.50" occupancy="0.75" waitingTime="0.00" speed="29.09" departed="10" arrived="0" entered="34" left="43" laneChangedFrom="0" laneChangedTo="0"/>
        <edge id="5" sampledSeconds="1990.16" traveltime="58.68" overlapTraveltime="58.96" density="1.43" occupancy="0.71" waitingTime="0.00" speed="23.70" departed="6" arrived="11" entered="29" left="22" laneChangedFrom="0" laneChangedTo="0"/>
        <edge id="50" sampledSeconds="4057.84" traveltime="159.20" overlapTraveltime="159.93" density="2.04" occupancy="1.02" waitingTime="4.00" speed="12.47" departed="9" arrived="0" entered="17" left="25" laneChangedFrom="0" laneChangedTo="0"/>
        <edge id="51" sampledSeconds="613.92" traveltime="282.12" overlapTraveltime="282.85" density="0.27" occupancy="0.13" waitingTime="0.00" speed="8.19" departed="3" arrived="0" entered="0" left="2" laneChangedFrom="0" laneChangedTo="0"/>
        <edge id="52" sampledSeconds="1802.22" traveltime="40.80" overlapTraveltime="41.40" density="1.52" occupancy="0.76" waitingTime="8.00" speed="28.82" departed="10" arrived="0" entered="36" left="41" laneChangedFrom="0" laneChangedTo="0"/>
        <edge id="53" sampledSeconds="5234.81" traveltime="111.03" overlapTraveltime="111.63" density="3.76" occupancy="1.88" waitingTime="0.00" speed="12.51" departed="11" arrived="0" entered="40" left="41" laneChangedFrom="0" laneChangedTo="0"/>
        <edge id="54" sampledSeconds="1660.19" traveltime="48.69" overlapTraveltime="48.95" density="1.39" occupancy="0.70" waitingTime="0.00" speed="24.45" departed="4" arrived="17" entered="30" left="16" laneChangedFrom="0" laneChangedTo="0"/>
        <edge id="55" sampledSeconds="1581.59" traveltime="161.41" overlapTraveltime="162.32" density="0.80" occupancy="0.40" waitingTime="4.00" speed="12.28" departed="10" arrived="0" entered="1" left="9" laneChangedFrom="0" laneChangedTo="0"/>
        <edge id="56" sampledSeconds="7013.02" traveltime="215.41" overlapTraveltime="215.73" density="1.22" occupancy="0.61" waitingTime="0.00" speed="26.60" departed="9" arrived="9" entered="33" left="15" laneChangedFrom="0" laneChangedTo="0"/>
        <edge id="57" sampledSeconds="3063.57" traveltime="129.62" overlapTraveltime="130.35" density="1.54" occupancy="0.77" waitingTime="11.00" speed="15.31" departed="4" arrived="0" entered="22" left="21" laneChangedFrom="0" laneChangedTo="0"/>
        <edge id="58" sampledSeconds="3643.28" traveltime="110.53" overlapTraveltime="110.92" density="2.62" occupancy="1.31" waitingTime="0.00" speed="12.59" departed="7" arrived="0" entered="27" left="32" laneChangedFrom="0" laneChangedTo="0"/>
        <edge id="59" sampledSeconds="5121.77" traveltime="240.84" overlapTraveltime="241.30" density="1.85" occupancy="0.92" waitingTime="0.00" speed="11.52" departed="5" arrived="11" entered="24" left="3" laneChangedFrom="0" laneChangedTo="0"/>
        <edge id="6" sampledSeconds="1821.12" traveltime="94.76" overlapTraveltime="95.09" density="1.14" occupancy="0.57" waitingTime="0.00" speed="16.78" departed="7" arrived="0" entered="14" left="19" laneChangedFrom="0" laneChangedTo="0"/>
        <edge id="60" sampledSeconds="3813.50" traveltime="215.90" overlapTraveltime="216.22" density="0.67" occupancy="0.33" waitingTime="0.00" speed="26.54" departed="6" arrived="0" entered="14" left="16" laneChangedFrom="0" laneChangedTo="0"/>
        <edge id="61" sampledSeconds="1184.69" traveltime="242.68" overlapTraveltime="243.32" density="0.43" occupancy="0.21" waitingTime="0.00" speed="11.43" departed="4" arrived="0" entered="1" left="4" laneChangedFrom="0" laneChangedTo="0"/>
        <edge id="62" sampledSeconds="4063.88" traveltime="223.29" overlapTraveltime="224.15" density="2.05" occupancy="1.02" waitingTime="13.00" speed="8.88" departed="5" arrived="0" entered="15" left="17" laneChangedFrom="0" laneChangedTo="0"/>
        <edge id="63" sampledSeconds="1835.62" traveltime="218.16" overlapTraveltime="218.96" density="0.72" occupancy="0.36" waitingTime="0.00" speed="11.63" departed="5" arrived="0" entered="4" left="8" laneChangedFrom="0" laneChangedTo="0"/>
        <edge id="64" sampledSeconds="4978.32" traveltime="221.33" overlapTraveltime="221.91" density="2.51" occupancy="1.25" waitingTime="0.00" speed="8.97" departed="4" arrived="8" entered="23" left="8" laneChangedFrom="0" laneChangedTo="0"/>
        <edge id="65" sampledSeconds="3088.15" traveltime="126.91" overlapTraveltime="127.40" density="1.95" occupancy="0.97" waitingTime="0.00" speed="12.50" departed="11" arrived="0" entered="14" left="23" laneChangedFrom="0" laneChangedTo="0"/>
        <edge id="66" sampledSeconds="4522.22" traveltime="127.29" overlapTraveltime="127.67" density="2.53" occupancy="1.26" waitingTime="0.00" speed="14.06" departed="7" arrived="0" entered="31" left="31" laneChangedFrom="0" laneChangedTo="0"/>
        <edge id="67" sampledSeconds="1935.75" traveltime="71.73" overlapTraveltime="72.37" density="1.63" occupancy="0.81" waitingTime="6.00" speed="16.52" departed="8" arrived="0" entered="20" left="25" laneChangedFrom="0" laneChangedTo="0"/>
        <edge id="68" sampledSeconds="6698.72" traveltime="254.63" overlapTraveltime="255.21" density="2.63" occupancy="1.32" waitingTime="0.00" speed="9.98" departed="6" arrived="10" entered="26" left="8" laneChangedFrom="0" laneChangedTo="0"/>
        <edge id="69" sampledSeconds="1937.52" traveltime="60.31" overlapTraveltime="60.66" density="1.22" occupancy="0.61" waitingTime="0.00" speed="26.24" departed="8" arrived="0" entered="26" left="31" laneChangedFrom="0" laneChangedTo="0"/>
        <edge id="7" sampledSeconds="3097.48" traveltime="95.03" overlapTraveltime="95.23" density="1.30" occupancy="0.65" waitingTime="0.00" speed="25.15" departed="5" arrived="0" entered="28" left="31" laneChangedFrom="0" laneChangedTo="0"/>
        <edge id="70" sampledSeconds="948.65" traveltime="174.34" overlapTraveltime="174.97" density="0.53" occupancy="0.26" waitingTime="0.00" speed="10.26" departed="6" arrived="0" entered="0" left="5" laneChangedFrom="0" laneChangedTo="0"/>
        <edge id="71" sampledSeconds="944.10" traveltime="129.51" overlapTraveltime="130.27" density="0.79" occupancy="0.40" waitingTime="0.00" speed="9.18" departed="7" arrived="0" entered="1" left="7" laneChangedFrom="0" laneChangedTo="0"/>
        <edge id="72" sampledSeconds="2461.33" traveltime="173.31" overlapTraveltime="174.25" density="1.37" occupancy="0.69" waitingTime="4.00" speed="10.30" departed="6" arrived="0" entered="11" left="11" laneChangedFrom="0" laneChangedTo="0"/>
        <edge id="73" sampledSeconds="1657.09" traveltime="154.78" overlapTraveltime="155.58" density="1.04" occupancy="0.52" waitingTime="6.00" speed="10.26" departed="7" arrived="0" entered="6" left="9" laneChangedFrom="0" laneChangedTo="0"/>
        <edge id="74" sampledSeconds="4614.74" traveltime="100.50" overlapTraveltime="100.84" density="2.90" occupancy="1.45" waitingTime="0.00" speed="15.84" departed="5" arrived="18" entered="49" left="22" laneChangedFrom="0" laneChangedTo="0"/>
        <edge id="75" sampledSeconds="2874.57" traveltime="129.65" overlapTraveltime="130.53" density="1.61" occupancy="0.80" waitingTime="9.00" speed="13.76" departed="8" arrived="0" entered="16" left="20" laneChangedFrom="0" laneChangedTo="0"/>
        <edge id="76" sampledSeconds="1268.59" traveltime="154.71" overlapTraveltime="155.35" density="0.80" occupancy="0.40" waitingTime="0.00" speed="10.27" departed="8" arrived="0" entered="1" left="8" laneChangedFrom="0" laneChangedTo="0"/>
        <edge id="8" sampledSeconds="3586.63" traveltime="95.53" overlapTraveltime="96.22" density="2.26" occupancy="1.13" waitingTime="0.00" speed="16.58" departed="10" arrived="0" entered="28" left="36" laneChangedFrom="0" laneChangedTo="0"/>
        <edge id="9" sampledSeconds="2246.46" traveltime="85.03" overlapTraveltime="85.50" density="1.25" occupancy="0.63" waitingTime="0.00" speed="21.00" departed="6" arrived="0" entered="21" left="25" laneChangedFrom="0" laneChangedTo="0"/>
    </interval>
    <interval begin="1000.00" end="2000.00" id="2">
        <edge id="1" sampledSeconds="13450.57" traveltime="222.11" overlapTraveltime="222.38" density="2.49" occupancy="1.25" waitingTime="6.00" speed="24.28" departed="8" arrived="40" entered="56" left="17" laneChangedFrom="0" laneChangedTo="0"/>
        <edge id="10" sampledSeconds="2558.47" traveltime="231.56" overlapTraveltime="232.34" density="1.07" occupancy="0.54" waitingTime="1.00" speed="10.31" departed="11" arrived="0" entered="0" left="12" laneChangedFrom="0" laneChangedTo="0"/>
        <edge id="11" sampledSeconds="3884.29" traveltime="85.54" overlapTraveltime="85.97" density="2.17" occupancy="1.08" waitingTime="2.00" speed="20.88" departed="12" arrived="0" entered="35" left="41" laneChangedFrom="0" laneChangedTo="0"/>
        <edge id="12" sampledSeconds="6201.03" traveltime="126.26" overlapTraveltime="127.00" density="3.12" occupancy="1.56" waitingTime="8.00" speed="15.71" departed="4" arrived="0" entered="47" left="47" laneChangedFrom="0" laneChangedTo="0"/>
        <edge id="13" sampledSeconds="694.05" traveltime="133.39" overlapTraveltime="134.11" density="0.58" occupancy="0.29" waitingTime="0.00" speed="8.91" departed="6" arrived="0" entered="0" left="4" laneChangedFrom="0" laneChangedTo="0"/>
        <edge id="14" sampledSeconds="6871.06" traveltime="78.05" overlapTraveltime="78.35" density="4.94" occupancy="2.47" waitingTime="0.00" speed="17.83" departed="8" arrived="32" entered="80" left="54" laneChangedFrom="0" laneChangedTo="0"/>
        <edge id="15" sampledSeconds="3940.77" traveltime="125.88" overlapTraveltime="126.27" density="1.98" occupancy="0.99" waitingTime="0.00" speed="15.80" departed="7" arrived="0" entered="23" left="32" laneChangedFrom="0" laneChangedTo="0"/>
        <edge id="16" sampledSeconds="3180.64" traveltime="63.66" overlapTraveltime="64.43" density="2.67" occupancy="1.34" waitingTime="0.00" speed="18.55" departed="3" arrived="0" entered="46" left="49" laneChangedFrom="0" laneChangedTo="0"/>
        <edge id="17" sampledSeconds="3832.00" traveltime="131.92" overlapTraveltime="132.77" density="1.92" occupancy="0.96" waitingTime="40.00" speed="15.04" departed="8" arrived="0" entered="20" left="30" laneChangedFrom="0" laneChangedTo="0"/>
        <edge id="18" sampledSeconds="1901.58" traveltime="49.36" overlapTraveltime="49.90" density="1.60" occupancy="0.80" waitingTime="0.00" speed="23.99" departed="8" arrived="0" entered="32" left="37" laneChangedFrom="0" laneChangedTo="0"/>
        <edge id="19" sampledSeconds="5139.03" traveltime="63.21" overlapTraveltime="63.65" density="4.32" occupancy="2.16" waitingTime="0.00" speed="18.78" departed="3" arrived="0" entered="77" left="81" laneChangedFrom="0" laneChangedTo="0"/>
        <edge id="2" sampledSeconds="662.66" traveltime="59.76" overlapTraveltime="60.32" density="0.48" occupancy="0.24" waitingTime="0.00" speed="23.16" departed="4" arrived="0" entered="7" left="11" laneChangedFrom="0" laneChangedTo="0"/>
        <edge id="20" sampledSeconds="9317.78" traveltime="128.61" overlapTraveltime="128.95" density="4.68" occupancy="2.34" waitingTime="0.00" speed="15.49" departed="12" arrived="40" entered="58" left="35" laneChangedFrom="0" laneChangedTo="0"/>
        <edge id="21" sampledSeconds="1912.65" traveltime="257.34" overlapTraveltime="258.16" density="0.96" occupancy="0.48" waitingTime="0.00" speed="7.73" departed="7" arrived="0" entered="0" left="7" laneChangedFrom="0" laneChangedTo="0"/>
        <edge id="22" sampledSeconds="4939.75" traveltime="119.58" overlapTraveltime="120.15" density="4.15" occupancy="2.07" waitingTime="0.00" speed="9.95" departed="14" arrived="0" entered="27" left="42" laneChangedFrom="0" laneChangedTo="0"/>
        <edge id="23" sampledSeconds="1517.39" traveltime="131.64" overlapTraveltime="132.41" density="1.27" occupancy="0.64" waitingTime="2.00" speed="9.03" departed="3" arrived="0" entered="8" left="12" laneChangedFrom="0" laneChangedTo="0"/>
        <edge id="24" sampledSeconds="3867.23" traveltime="258.75" overlapTraveltime="259.82" density="1.94" occupancy="0.97" waitingTime="18.00" speed="7.68" departed="11" arrived="0" entered="5" left="13" laneChangedFrom="0" laneChangedTo="0"/>
        <edge id="25" sampledSeconds="2870.24" traveltime="227.04" overlapTraveltime="228.13" density="2.41" occupancy="1.21" waitingTime="5.00" speed="5.24" departed="7" arrived="0" entered="5" left="14" laneChangedFrom="0" laneChangedTo="0"/>
        <edge id="26" sampledSeconds="1615.87" traveltime="226.59" overlapTraveltime="227.53" density="1.36" occupancy="0.68" waitingTime="0.00" speed="5.25" departed="8" arrived="0" entered="0" left="7" laneChangedFrom="0" laneChangedTo="0"/>
        <edge id="27" sampledSeconds="3923.62" traveltime="277.19" overlapTraveltime="277.92" density="2.19" occupancy="1.10" waitingTime="0.00" speed="6.46" departed="4" arrived="0" entered="11" left="14" laneChangedFrom="0" laneChangedTo="0"/>
        <edge id="28" sampledSeconds="8012.69" traveltime="345.64" overlapTraveltime="346.29" density="3.10" occupancy="1.55" waitingTime="0.00" speed="7.49" departed="6" arrived="0" entered="14" left="28" laneChangedFrom="0" laneChangedTo="0"/>
        <edge id="29" sampledSeconds="5824.56" traveltime="174.09" overlapTraveltime="175.00" density="2.94" occupancy="1.47" waitingTime="20.00" speed="11.35" departed="10" arrived="0" entered="27" left="31" laneChangedFrom="0" laneChangedTo="0"/>
        <edge id="3" sampledSeconds="13667.90" traveltime="221.61" overlapTraveltime="222.18" density="2.53" occupancy="1.27" waitingTime="3.00" speed="24.30" departed="7" arrived="38" entered="53" left="28" laneChangedFrom="0" laneChangedTo="0"/>
        <edge id="30" sampledSeconds="2979.18" traveltime="283.30" overlapTraveltime="284.25" density="1.29" occupancy="0.64" waitingTime="3.00" speed="8.15" departed="9" arrived="0" entered="0" left="12" laneChangedFrom="0" laneChangedTo="0"/>
        <edge id="31" sampledSeconds="3232.84" traveltime="230.68" overlapTraveltime="231.32" density="1.35" occupancy="0.68" waitingTime="0.00" speed="10.36" departed="9" arrived="0" entered="6" left="13" laneChangedFrom="0" laneChangedTo="0"/>
        <edge id="32" sampledSeconds="3427.20" traveltime="278.05" overlapTraveltime="278.78" density="1.91" occupancy="0.96" waitingTime="0.00" speed="6.44" departed="8" arrived="0" entered="6" left="12" laneChangedFrom="0" laneChangedTo="0"/>
        <edge id="33" sampledSeconds="3764.09" traveltime="114.53" overlapTraveltime="115.25" density="2.37" occupancy="1.18" waitingTime="2.00" speed="13.84" departed="3" arrived="0" entered="29" left="32" laneChangedFrom="0" laneChangedTo="0"/>
        <edge id="34" sampledSeconds="1794.35" traveltime="278.84" overlapTraveltime="279.48" density="0.69" occupancy="0.35" waitingTime="0.00" speed="9.29" departed="4" arrived="0" entered="4" left="6" laneChangedFrom="0" laneChangedTo="0"/>
        <edge id="35" sampledSeconds="4565.36" traveltime="93.45" overlapTraveltime="93.67" density="1.91" occupancy="0.95" waitingTime="0.00" speed="25.57" departed="5" arrived="0" entered="41" left="50" laneChangedFrom="0" laneChangedTo="0"/>
        <edge id="36" sampledSeconds="1264.17" traveltime="115.42" overlapTraveltime="116.00" density="0.79" occupancy="0.40" waitingTime="0.00" speed="13.75" departed="9" arrived="0" entered="3" left="9" laneChangedFrom="0" laneChangedTo="0"/>
        <edge id="37" sampledSeconds="12993.71" traveltime="189.06" overlapTraveltime="189.27" density="2.41" occupancy="1.20" waitingTime="0.00" speed="28.51" departed="5" arrived="46" entered="62" left="24" laneChangedFrom="0" laneChangedTo="0"/>
        <edge id="38" sampledSeconds="9191.81" traveltime="189.18" overlapTraveltime="189.96" density="1.70" occupancy="0.85" waitingTime="13.00" speed="28.41" departed="3" arrived="0" entered="46" left="47" laneChangedFrom="0" laneChangedTo="0"/>
        <edge id="39" sampledSeconds="3249.44" traveltime="100.52" overlapTraveltime="101.02" density="2.04" occupancy="1.02" waitingTime="0.00" speed="15.81" departed="5" arrived="0" entered="27" left="32" laneChangedFrom="0" laneChangedTo="0"/>
        <edge id="4" sampledSeconds="1749.18" traveltime="78.68" overlapTraveltime="79.01" density="1.26" occupancy="0.63" waitingTime="0.00" speed="17.68" departed="5" arrived="0" entered="18" left="21" laneChangedFrom="0" laneChangedTo="0"/>
        <edge id="40" sampledSeconds="2757.43" traveltime="278.72" overlapTraveltime="279.55" density="1.06" occupancy="0.53" waitingTime="0.00" speed="9.28" departed="5" arrived="0" entered="6" left="10" laneChangedFrom="0" laneChangedTo="0"/>
        <edge id="41" sampledSeconds="4800.83" traveltime="197.69" overlapTraveltime="198.48" density="2.68" occupancy="1.34" waitingTime="0.00" speed="9.05" departed="10" arrived="0" entered="13" left="23" laneChangedFrom="0" laneChangedTo="0"/>
        <edge id="42" sampledSeconds="1511.25" traveltime="129.46" overlapTraveltime="130.12" density="1.27" occupancy="0.63" waitingTime="0.00" speed="9.19" departed="9" arrived="0" entered="1" left="12" laneChangedFrom="0" laneChangedTo="0"/>
        <edge id="43" sampledSeconds="2704.18" traveltime="346.98" overlapTraveltime="347.68" density="1.04" occupancy="0.52" waitingTime="0.00" speed="7.46" departed="8" arrived="0" entered="0" left="8" laneChangedFrom="0" laneChangedTo="0"/>
        <edge id="44" sampledSeconds="1466.02" traveltime="197.86" overlapTraveltime="198.53" density="0.82" occupancy="0.41" waitingTime="0.00" speed="9.04" departed="6" arrived="0" entered="0" left="7" laneChangedFrom="0" laneChangedTo="0"/>
        <edge id="45" sampledSeconds="6778.16" traveltime="127.89" overlapTraveltime="128.28" density="3.41" occupancy="1.70" waitingTime="0.00" speed="15.56" departed="3" arrived="0" entered="50" left="53" laneChangedFrom="0" laneChangedTo="0"/>