<?xml version="1.0" encoding="UTF-8"?>

<!-- generated on 02/12/18 15:55:56 by SUMO Version 0.30.0
<?xml version="1.0" encoding="UTF-8"?>

<configuration xmlns:xsi="http://www.w3.org/2001/XMLSchema-instance" xsi:noNamespaceSchemaLocation="http://sumo.dlr.de/xsd/sumoConfiguration.xsd">

    <input>
        <net-file value="C:/Users/Shekar/Desktop/laptop/sumo_sim/sioux_falls/config/../network/sf_net.net.xml"/>
        <route-files value="C:/Users/Shekar/Desktop/laptop/sumo_sim/sioux_falls/config/../trips/trip.xml"/>
        <additional-files value="C:/Users/Shekar/Desktop/laptop/sumo_sim/sioux_falls/config/additional_58__0_1000.xml"/>
    </input>

    <output>
        <summary-output value="C:/Users/Shekar/Desktop/laptop/sumo_sim/sioux_falls/config/../output/summary_58__0_1000.xml"/>
    </output>

    <processing>
        <time-to-teleport value="300"/>
    </processing>

    <report>
        <log value="C:/Users/Shekar/Desktop/laptop/sumo_sim/sioux_falls/config/../output/report_58__0_1000.xml"/>
    </report>

</configuration>
-->

<meandata xmlns:xsi="http://www.w3.org/2001/XMLSchema-instance" xsi:noNamespaceSchemaLocation="http://sumo.dlr.de/xsd/meandata_file.xsd">
    <interval begin="0.00" end="1000.00" id="1">
        <edge id="1" sampledSeconds="5430.64" traveltime="222.48" overlapTraveltime="222.83" density="1.01" occupancy="0.50" waitingTime="1.00" speed="24.23" departed="6" arrived="10" entered="24" left="8" laneChangedFrom="0" laneChangedTo="0"/>
        <edge id="10" sampledSeconds="1642.38" traveltime="231.12" overlapTraveltime="231.71" density="0.69" occupancy="0.34" waitingTime="0.00" speed="10.34" departed="8" arrived="0" entered="0" left="5" laneChangedFrom="0" laneChangedTo="0"/>
        <edge id="11" sampledSeconds="2230.72" traveltime="84.80" overlapTraveltime="85.13" density="1.25" occupancy="0.62" waitingTime="0.00" speed="21.09" departed="4" arrived="0" entered="23" left="26" laneChangedFrom="0" laneChangedTo="0"/>
        <edge id="12" sampledSeconds="4563.70" traveltime="126.55" overlapTraveltime="127.22" density="2.29" occupancy="1.15" waitingTime="4.00" speed="15.69" departed="5" arrived="0" entered="32" left="35" laneChangedFrom="0" laneChangedTo="0"/>
        <edge id="13" sampledSeconds="1063.79" traveltime="132.82" overlapTraveltime="133.54" density="0.89" occupancy="0.45" waitingTime="0.00" speed="8.95" departed="8" arrived="0" entered="0" left="8" laneChangedFrom="0" laneChangedTo="0"/>
        <edge id="14" sampledSeconds="3792.30" traveltime="78.20" overlapTraveltime="78.47" density="2.72" occupancy="1.36" waitingTime="0.00" speed="17.80" departed="5" arrived="15" entered="49" left="27" laneChangedFrom="0" laneChangedTo="0"/>
        <edge id="15" sampledSeconds="2905.87" traveltime="126.53" overlapTraveltime="126.96" density="1.46" occupancy="0.73" waitingTime="0.00" speed="15.72" departed="10" arrived="0" entered="15" left="21" laneChangedFrom="0" laneChangedTo="0"/>
        <edge id="16" sampledSeconds="2557.90" traveltime="63.79" overlapTraveltime="64.39" density="2.15" occupancy="1.07" waitingTime="0.00" speed="18.57" departed="5" arrived="0" entered="36" left="38" laneChangedFrom="0" laneChangedTo="0"/>
        <edge id="17" sampledSeconds="4032.44" traveltime="130.14" overlapTraveltime="130.84" density="2.02" occupancy="1.01" waitingTime="3.00" speed="15.26" departed="11" arrived="0" entered="24" left="28" laneChangedFrom="0" laneChangedTo="0"/>
        <edge id="18" sampledSeconds="1083.13" traveltime="48.57" overlapTraveltime="49.27" density="0.91" occupancy="0.45" waitingTime="5.00" speed="24.29" departed="4" arrived="0" entered="18" left="22" laneChangedFrom="0" laneChangedTo="0"/>
        <edge id="19" sampledSeconds="3209.91" traveltime="63.94" overlapTraveltime="64.35" density="2.70" occupancy="1.35" waitingTime="0.00" speed="18.58" departed="10" arrived="0" entered="41" left="48" laneChangedFrom="0" laneChangedTo="0"/>
        <edge id="2" sampledSeconds="744.19" traveltime="61.31" overlapTraveltime="62.15" density="0.53" occupancy="0.27" waitingTime="2.00" speed="22.48" departed="7" arrived="0" entered="5" left="12" laneChangedFrom="0" laneChangedTo="0"/>
        <edge id="20" sampledSeconds="4660.44" traveltime="129.24" overlapTraveltime="129.60" density="2.34" occupancy="1.17" waitingTime="0.00" speed="15.41" departed="9" arrived="13" entered="31" left="19" laneChangedFrom="0" laneChangedTo="0"/>
        <edge id="21" sampledSeconds="908.91" traveltime="257.61" overlapTraveltime="258.32" density="0.46" occupancy="0.23" waitingTime="0.00" speed="7.72" departed="4" arrived="0" entered="0" left="3" laneChangedFrom="0" laneChangedTo="0"/>
        <edge id="22" sampledSeconds="3399.83" traveltime="119.32" overlapTraveltime="119.83" density="2.86" occupancy="1.43" waitingTime="0.00" speed="9.98" departed="5" arrived="0" entered="26" left="26" laneChangedFrom="0" laneChangedTo="0"/>
        <edge id="23" sampledSeconds="1372.80" traveltime="132.29" overlapTraveltime="133.01" density="1.15" occupancy="0.58" waitingTime="3.00" speed="8.99" departed="6" arrived="0" entered="6" left="9" laneChangedFrom="0" laneChangedTo="0"/>
        <edge id="24" sampledSeconds="2844.82" traveltime="258.00" overlapTraveltime="258.98" density="1.43" occupancy="0.71" waitingTime="6.00" speed="7.71" departed="6" arrived="0" entered="5" left="11" laneChangedFrom="0" laneChangedTo="0"/>
        <edge id="25" sampledSeconds="1858.76" traveltime="226.19" overlapTraveltime="227.09" density="1.56" occupancy="0.78" waitingTime="0.00" speed="5.26" departed="8" arrived="0" entered="2" left="5" laneChangedFrom="0" laneChangedTo="0"/>
        <edge id="26" sampledSeconds="507.15" traveltime="226.24" overlapTraveltime="227.12" density="0.43" occupancy="0.21" waitingTime="0.00" speed="5.26" departed="2" arrived="0" entered="1" left="2" laneChangedFrom="0" laneChangedTo="0"/>
        <edge id="27" sampledSeconds="2184.39" traveltime="278.10" overlapTraveltime="278.86" density="1.22" occupancy="0.61" waitingTime="0.00" speed="6.44" departed="4" arrived="0" entered="6" left="6" laneChangedFrom="0" laneChangedTo="0"/>
        <edge id="28" sampledSeconds="4757.03" traveltime="346.60" overlapTraveltime="347.24" density="1.84" occupancy="0.92" waitingTime="0.00" speed="7.47" departed="11" arrived="0" entered="10" left="7" laneChangedFrom="0" laneChangedTo="0"/>
        <edge id="29" sampledSeconds="3036.41" traveltime="173.44" overlapTraveltime="174.21" density="1.53" occupancy="0.77" waitingTime="2.00" speed="11.41" departed="4" arrived="0" entered="14" left="16" laneChangedFrom="0" laneChangedTo="0"/>
        <edge id="3" sampledSeconds="5418.95" traveltime="221.96" overlapTraveltime="222.26" density="1.00" occupancy="0.50" waitingTime="0.00" speed="24.29" departed="3" arrived="9" entered="31" left="7" laneChangedFrom="0" laneChangedTo="0"/>
        <edge id="30" sampledSeconds="855.14" traveltime="283.51" overlapTraveltime="284.21" density="0.37" occupancy="0.18" waitingTime="0.00" speed="8.15" departed="6" arrived="0" entered="0" left="1" laneChangedFrom="0" laneChangedTo="0"/>
        <edge id="31" sampledSeconds="1022.98" traveltime="230.75" overlapTraveltime="231.35" density="0.43" occupancy="0.21" waitingTime="0.00" speed="10.35" departed="4" arrived="0" entered="1" left="4" laneChangedFrom="0" laneChangedTo="0"/>
        <edge id="32" sampledSeconds="2368.59" traveltime="277.68" overlapTraveltime="278.38" density="1.32" occupancy="0.66" waitingTime="0.00" speed="6.45" departed="6" arrived="0" entered="3" left="8" laneChangedFrom="0" laneChangedTo="0"/>
        <edge id="33" sampledSeconds="2421.73" traveltime="115.15" overlapTraveltime="116.01" density="1.52" occupancy="0.76" waitingTime="2.00" speed="13.75" departed="4" arrived="0" entered="21" left="19" laneChangedFrom="0" laneChangedTo="0"/>
        <edge id="34" sampledSeconds="1380.91" traveltime="279.73" overlapTraveltime="280.37" density="0.53" occupancy="0.27" waitingTime="0.00" speed="9.26" departed="6" arrived="0" entered="0" left="4" laneChangedFrom="0" laneChangedTo="0"/>
        <edge id="35" sampledSeconds="2509.90" traveltime="95.11" overlapTraveltime="95.37" density="1.05" occupancy="0.52" waitingTime="0.00" speed="25.12" departed="7" arrived="0" entered="24" left="23" laneChangedFrom="0" laneChangedTo="0"/>
        <edge id="36" sampledSeconds="541.61" traveltime="115.68" overlapTraveltime="116.33" density="0.34" occupancy="0.17" waitingTime="0.00" speed="13.72" departed="4" arrived="0" entered="1" left="4" laneChangedFrom="0" laneChangedTo="0"/>
        <edge id="37" sampledSeconds="8362.11" traveltime="188.72" overlapTraveltime="188.97" density="1.55" occupancy="0.78" waitingTime="0.00" speed="28.56" departed="4" arrived="18" entered="47" left="20" laneChangedFrom="0" laneChangedTo="0"/>
        <edge id="38" sampledSeconds="4490.57" traveltime="189.91" overlapTraveltime="190.22" density="0.83" occupancy="0.42" waitingTime="0.00" speed="28.37" departed="5" arrived="0" entered="22" left="22" laneChangedFrom="0" laneChangedTo="0"/>
        <edge id="39" sampledSeconds="2710.61" traveltime="101.18" overlapTraveltime="101.97" density="1.70" occupancy="0.85" waitingTime="3.00" speed="15.66" departed="8" arrived="0" entered="20" left="26" laneChangedFrom="0" laneChangedTo="0"/>
        <edge id="4" sampledSeconds="1377.58" traveltime="80.72" overlapTraveltime="81.26" density="0.99" occupancy="0.49" waitingTime="0.00" speed="17.19" departed="13" arrived="0" entered="4" left="17" laneChangedFrom="0" laneChangedTo="0"/>
        <edge id="40" sampledSeconds="3205.60" traveltime="278.24" overlapTraveltime="278.95" density="1.24" occupancy="0.62" waitingTime="0.00" speed="9.30" departed="6" arrived="0" entered="8" left="10" laneChangedFrom="0" laneChangedTo="0"/>
        <edge id="41" sampledSeconds="3122.16" traveltime="197.67" overlapTraveltime="198.46" density="1.74" occupancy="0.87" waitingTime="2.00" speed="9.05" departed="9" arrived="0" entered="9" left="14" laneChangedFrom="0" laneChangedTo="0"/>
        <edge id="42" sampledSeconds="695.08" traveltime="130.23" overlapTraveltime="130.82" density="0.58" occupancy="0.29" waitingTime="0.00" speed="9.14" departed="7" arrived="0" entered="0" left="5" laneChangedFrom="0" laneChangedTo="0"/>
        <edge id="43" sampledSeconds="3114.10" traveltime="347.87" overlapTraveltime="348.74" density="1.20" occupancy="0.60" waitingTime="0.00" speed="7.44" departed="11" arrived="0" entered="0" left="7" laneChangedFrom="0" laneChangedTo="0"/>
        <edge id="44" sampledSeconds="1238.07" traveltime="197.99" overlapTraveltime="198.67" density="0.69" occupancy="0.35" waitingTime="0.00" speed="9.04" departed="5" arrived="0" entered="3" left="6" laneChangedFrom="0" laneChangedTo="0"/>
        <edge id="45" sampledSeconds="3956.41" traveltime="128.05" overlapTraveltime="128.47" density="1.99" occupancy="0.99" waitingTime="0.00" speed="15.53" departed="4" arrived="0" entered="30" left="28" laneChangedFrom="0" laneChangedTo="0"/>
        <edge id="46" sampledSeconds="2615.86" traveltime="71.43" overlapTraveltime="71.90" density="2.20" occupancy="1.10" waitingTime="0.00" speed="16.63" departed="5" arrived="0" entered="37" left="31" laneChangedFrom="0" laneChangedTo="0"/>
        <edge id="47" sampledSeconds="2788.13" traveltime="119.35" overlapTraveltime="119.87" density="2.34" occupancy="1.17" waitingTime="0.00" speed="9.97" departed="5" arrived="0" entered="20" left="21" laneChangedFrom="0" laneChangedTo="0"/>
        <edge id="48" sampledSeconds="1758.06" traveltime="174.07" overlapTraveltime="175.09" density="0.89" occupancy="0.44" waitingTime="0.00" speed="11.35" departed="9" arrived="0" entered="2" left="9" laneChangedFrom="0" laneChangedTo="0"/>
        <edge id="49" sampledSeconds="1797.36" traveltime="40.94" overlapTraveltime="41.31" density="1.51" occupancy="0.76" waitingTime="0.00" speed="28.88" departed="10" arrived="0" entered="34" left="43" laneChangedFrom="0" laneChangedTo="0"/>
        <edge id="5" sampledSeconds="1989.80" traveltime="58.67" overlapTraveltime="58.93" density="1.43" occupancy="0.71" waitingTime="0.00" speed="23.71" departed="6" arrived="11" entered="29" left="22" laneChangedFrom="0" laneChangedTo="0"/>
        <edge id="50" sampledSeconds="3910.51" traveltime="159.57" overlapTraveltime="160.37" density="1.97" occupancy="0.98" waitingTime="7.00" speed="12.43" departed="9" arrived="0" entered="16" left="24" laneChangedFrom="0" laneChangedTo="0"/>
        <edge id="51" sampledSeconds="616.19" traveltime="283.68" overlapTraveltime="284.40" density="0.27" occupancy="0.13" waitingTime="0.00" speed="8.15" departed="3" arrived="0" entered="0" left="2" laneChangedFrom="0" laneChangedTo="0"/>
        <edge id="52" sampledSeconds="904.97" traveltime="42.45" overlapTraveltime="43.18" density="0.76" occupancy="0.38" waitingTime="8.00" speed="27.63" departed="10" arrived="0" entered="11" left="21" laneChangedFrom="0" laneChangedTo="0"/>
        <edge id="53" sampledSeconds="5203.42" traveltime="110.74" overlapTraveltime="111.26" density="3.74" occupancy="1.87" waitingTime="0.00" speed="12.56" departed="11" arrived="0" entered="40" left="40" laneChangedFrom="0" laneChangedTo="0"/>
        <edge id="54" sampledSeconds="1988.32" traveltime="48.25" overlapTraveltime="48.53" density="1.67" occupancy="0.83" waitingTime="0.00" speed="24.67" departed="4" arrived="18" entered="37" left="23" laneChangedFrom="0" laneChangedTo="0"/>
        <edge id="55" sampledSeconds="1586.35" traveltime="161.87" overlapTraveltime="162.81" density="0.80" occupancy="0.40" waitingTime="2.00" speed="12.25" departed="10" arrived="0" entered="1" left="9" laneChangedFrom="0" laneChangedTo="0"/>
        <edge id="56" sampledSeconds="6935.69" traveltime="215.63" overlapTraveltime="215.92" density="1.21" occupancy="0.60" waitingTime="0.00" speed="26.57" departed="9" arrived="8" entered="33" left="15" laneChangedFrom="0" laneChangedTo="0"/>
        <edge id="57" sampledSeconds="3546.27" traveltime="129.10" overlapTraveltime="129.76" density="1.78" occupancy="0.89" waitingTime="2.00" speed="15.38" departed="4" arrived="0" entered="25" left="25" laneChangedFrom="0" laneChangedTo="0"/>
        <edge id="58" sampledSeconds="790.52" traveltime="112.86" overlapTraveltime="113.35" density="0.57" occupancy="0.28" waitingTime="0.00" speed="12.32" departed="7" arrived="0" entered="0" left="7" laneChangedFrom="0" laneChangedTo="0"/>
        <edge id="59" sampledSeconds="9841.40" traveltime="240.96" overlapTraveltime="241.59" density="3.55" occupancy="1.77" waitingTime="8.00" speed="11.51" departed="5" arrived="11" entered="47" left="18" laneChangedFrom="0" laneChangedTo="0"/>
        <edge id="6" sampledSeconds="1822.22" traveltime="94.80" overlapTraveltime="95.12" density="1.15" occupancy="0.57" waitingTime="0.00" speed="16.77" departed="7" arrived="0" entered="14" left="19" laneChangedFrom="0" laneChangedTo="0"/>
        <edge id="60" sampledSeconds="6435.75" traveltime="215.38" overlapTraveltime="215.97" density="1.12" occupancy="0.56" waitingTime="4.00" speed="26.57" departed="6" arrived="0" entered="30" left="25" laneChangedFrom="0" laneChangedTo="0"/>
        <edge id="61" sampledSeconds="1193.30" traveltime="244.11" overlapTraveltime="244.92" density="0.43" occupancy="0.21" waitingTime="6.00" speed="11.35" departed="4" arrived="0" entered="1" left="4" laneChangedFrom="0" laneChangedTo="0"/>
        <edge id="62" sampledSeconds="4045.26" traveltime="222.17" overlapTraveltime="222.97" density="2.04" occupancy="1.02" waitingTime="3.00" speed="8.92" departed="5" arrived="0" entered="15" left="17" laneChangedFrom="0" laneChangedTo="0"/>
        <edge id="63" sampledSeconds="1840.74" traveltime="218.10" overlapTraveltime="218.89" density="0.72" occupancy="0.36" waitingTime="0.00" speed="11.64" departed="5" arrived="0" entered="4" left="8" laneChangedFrom="0" laneChangedTo="0"/>
        <edge id="64" sampledSeconds="4979.87" traveltime="221.21" overlapTraveltime="221.77" density="2.51" occupancy="1.25" waitingTime="0.00" speed="8.97" departed="4" arrived="8" entered="23" left="8" laneChangedFrom="0" laneChangedTo="0"/>
        <edge id="65" sampledSeconds="3083.70" traveltime="126.77" overlapTraveltime="127.26" density="1.94" occupancy="0.97" waitingTime="0.00" speed="12.51" departed="11" arrived="0" entered="14" left="23" laneChangedFrom="0" laneChangedTo="0"/>
        <edge id="66" sampledSeconds="4525.31" traveltime="127.45" overlapTraveltime="127.82" density="2.53" occupancy="1.26" waitingTime="0.00" speed="14.05" departed="7" arrived="0" entered="31" left="31" laneChangedFrom="0" laneChangedTo="0"/>
        <edge id="67" sampledSeconds="1849.06" traveltime="71.30" overlapTraveltime="71.82" density="1.55" occupancy="0.78" waitingTime="1.00" speed="16.64" departed="8" arrived="0" entered="19" left="24" laneChangedFrom="0" laneChangedTo="0"/>
        <edge id="68" sampledSeconds="7080.76" traveltime="254.82" overlapTraveltime="255.48" density="2.79" occupancy="1.39" waitingTime="12.00" speed="9.97" departed="6" arrived="10" entered="28" left="9" laneChangedFrom="0" laneChangedTo="0"/>
        <edge id="69" sampledSeconds="1941.82" traveltime="60.36" overlapTraveltime="60.73" density="1.22" occupancy="0.61" waitingTime="0.00" speed="26.22" departed="8" arrived="0" entered="26" left="31" laneChangedFrom="0" laneChangedTo="0"/>
        <edge id="7" sampledSeconds="3097.23" traveltime="94.78" overlapTraveltime="94.99" density="1.30" occupancy="0.65" waitingTime="0.00" speed="25.22" departed="5" arrived="0" entered="28" left="32" laneChangedFrom="0" laneChangedTo="0"/>
        <edge id="70" sampledSeconds="946.82" traveltime="174.05" overlapTraveltime="174.69" density="0.53" occupancy="0.26" waitingTime="0.00" speed="10.28" departed="6" arrived="0" entered="0" left="5" laneChangedFrom="0" laneChangedTo="0"/>
        <edge id="71" sampledSeconds="945.05" traveltime="129.69" overlapTraveltime="130.34" density="0.79" occupancy="0.40" waitingTime="0.00" speed="9.17" departed="7" arrived="0" entered="1" left="7" laneChangedFrom="0" laneChangedTo="0"/>
        <edge id="72" sampledSeconds="2459.87" traveltime="173.32" overlapTraveltime="174.15" density="1.37" occupancy="0.69" waitingTime="3.00" speed="10.31" departed="6" arrived="0" entered="11" left="11" laneChangedFrom="0" laneChangedTo="0"/>
        <edge id="73" sampledSeconds="1659.23" traveltime="154.99" overlapTraveltime="155.85" density="1.04" occupancy="0.52" waitingTime="5.00" speed="10.24" departed="7" arrived="0" entered="6" left="9" laneChangedFrom="0" laneChangedTo="0"/>
        <edge id="74" sampledSeconds="4619.68" traveltime="100.52" overlapTraveltime="100.86" density="2.90" occupancy="1.45" waitingTime="0.00" speed="15.83" departed="5" arrived="18" entered="49" left="22" laneChangedFrom="0" laneChangedTo="0"/>
        <edge id="75" sampledSeconds="2869.35" traveltime="129.60" overlapTraveltime="130.40" density="1.60" occupancy="0.80" waitingTime="4.00" speed="13.77" departed="8" arrived="0" entered="16" left="20" laneChangedFrom="0" laneChangedTo="0"/>
        <edge id="76" sampledSeconds="1273.54" traveltime="155.12" overlapTraveltime="155.85" density="0.80" occupancy="0.40" waitingTime="0.00" speed="10.24" departed="8" arrived="0" entered="1" left="8" laneChangedFrom="0" laneChangedTo="0"/>
        <edge id="8" sampledSeconds="3587.69" traveltime="95.55" overlapTraveltime="96.23" density="2.26" occupancy="1.13" waitingTime="2.00" speed="16.58" departed="10" arrived="0" entered="28" left="36" laneChangedFrom="0" laneChangedTo="0"/>
        <edge id="9" sampledSeconds="2251.56" traveltime="85.08" overlapTraveltime="85.58" density="1.26" occupancy="0.63" waitingTime="1.00" speed="20.98" departed="6" arrived="0" entered="21" left="25" laneChangedFrom="0" laneChangedTo="0"/>
    </interval>
    <interval begin="1000.00" end="2000.00" id="2">
        <edge id="1" sampledSeconds="13632.39" traveltime="222.06" overlapTraveltime="222.34" density="2.53" occupancy="1.26" waitingTime="1.00" speed="24.28" departed="8" arrived="41" entered="57" left="18" laneChangedFrom="0" laneChangedTo="0"/>
        <edge id="10" sampledSeconds="2565.08" traveltime="232.07" overlapTraveltime="232.89" density="1.07" occupancy="0.54" waitingTime="2.00" speed="10.29" departed="11" arrived="0" entered="0" left="12" laneChangedFrom="0" laneChangedTo="0"/>
        <edge id="11" sampledSeconds="3978.47" traveltime="85.41" overlapTraveltime="85.96" density="2.22" occupancy="1.11" waitingTime="6.00" speed="20.89" departed="12" arrived="0" entered="36" left="42" laneChangedFrom="0" laneChangedTo="0"/>
        <edge id="12" sampledSeconds="6227.04" traveltime="126.59" overlapTraveltime="127.43" density="3.13" occupancy="1.56" waitingTime="15.00" speed="15.66" departed="4" arrived="0" entered="46" left="47" laneChangedFrom="0" laneChangedTo="0"/>
        <edge id="13" sampledSeconds="690.29" traveltime="132.61" overlapTraveltime="133.27" density="0.58" occupancy="0.29" waitingTime="0.00" speed="8.97" departed="6" arrived="0" entered="0" left="4" laneChangedFrom="0" laneChangedTo="0"/>
        <edge id="14" sampledSeconds="7146.47" traveltime="78.05" overlapTraveltime="78.34" density="5.13" occupancy="2.57" waitingTime="0.00" speed="17.83" departed="8" arrived="35" entered="84" left="54" laneChangedFrom="0" laneChangedTo="0"/>
        <edge id="15" sampledSeconds="3934.51" traveltime="125.86" overlapTraveltime="126.22" density="1.98" occupancy="0.99" waitingTime="0.00" speed="15.81" departed="7" arrived="0" entered="23" left="32" laneChangedFrom="0" laneChangedTo="0"/>
        <edge id="16" sampledSeconds="3183.46" traveltime="63.71" overlapTraveltime="64.42" density="2.67" occupancy="1.34" waitingTime="0.00" speed="18.56" departed="3" arrived="0" entered="47" left="50" laneChangedFrom="0" laneChangedTo="0"/>
        <edge id="17" sampledSeconds="6470.44" traveltime="129.86" overlapTraveltime="130.69" density="3.25" occupancy="1.62" waitingTime="9.00" speed="15.28" departed="8" arrived="0" entered="39" left="52" laneChangedFrom="0" laneChangedTo="0"/>
        <edge id="18" sampledSeconds="1904.01" traveltime="50.08" overlapTraveltime="51.32" density="1.60" occupancy="0.80" waitingTime="42.00" speed="23.32" departed="8" arrived="0" entered="31" left="36" laneChangedFrom="0" laneChangedTo="0"/>
        <edge id="19" sampledSeconds="5476.07" traveltime="63.32" overlapTraveltime="63.73" density="4.60" occupancy="2.30" waitingTime="0.00" speed="18.76" departed="3" arrived="0" entered="84" left="85" laneChangedFrom="0" laneChangedTo="0"/>
        <edge id="2" sampledSeconds="665.78" traveltime="59.73" overlapTraveltime="60.61" density="0.48" occupancy="0.24" waitingTime="2.00" speed="23.05" departed="4" arrived="0" entered="7" left="11" laneChangedFrom="0" laneChangedTo="0"/>
        <edge id="20" sampledSeconds="9466.89" traveltime="128.71" overlapTraveltime="129.08" density="4.75" occupancy="2.38" waitingTime="2.00" speed="15.47" departed="12" arrived="42" entered="60" left="34" laneChangedFrom="0" laneChangedTo="0"/>
        <edge id="21" sampledSeconds="1914.93" traveltime="257.42" overlapTraveltime="258.19" density="0.96" occupancy="0.48" waitingTime="0.00" speed="7.73" departed="7" arrived="0" entered="0" left="7" laneChangedFrom="0" laneChangedTo="0"/>
        <edge id="22" sampledSeconds="5005.88" traveltime="119.62" overlapTraveltime="120.13" density="4.20" occupancy="2.10" waitingTime="0.00" speed="9.95" departed="14" arrived="0" entered="27" left="43" laneChangedFrom="0" laneChangedTo="0"/>
        <edge id="23" sampledSeconds="1646.95" traveltime="131.31" overlapTraveltime="132.03" density="1.38" occupancy="0.69" waitingTime="0.00" speed="9.05" departed="3" arrived="0" entered="9" left="13" laneChangedFrom="0" laneChangedTo="0"/>
        <edge id="24" sampledSeconds="3849.68" traveltime="257.81" overlapTraveltime="258.68" density="1.93" occupancy="0.97" waitingTime="9.00" speed="7.71" departed="11" arrived="0" entered="5" left="13" laneChangedFrom="0" laneChangedTo="0"/>
        <edge id="25" sampledSeconds="2854.34" traveltime="226.32" overlapTraveltime="227.27" density="2.40" occupancy="1.20" waitingTime="4.00" speed="5.26" departed="7" arrived="0" entered="5" left="14" laneChangedFrom="0" laneChangedTo="0"/>
        <edge id="26" sampledSeconds="1786.97" traveltime="226.41" overlapTraveltime="227.31" density="1.50" occupancy="0.75" waitingTime="0.00" speed="5.26" departed="8" arrived="0" entered="0" left="8" laneChangedFrom="0" laneChangedTo="0"/>
        <edge id="27" sampledSeconds="3431.55" traveltime="277.56" overlapTraveltime="278.28" density="1.92" occupancy="0.96" waitingTime="0.00" speed="6.45" departed="4" arrived="0" entered="10" left="12" laneChangedFrom="0" laneChangedTo="0"/>
        <edge id="28" sampledSeconds="8021.52" traveltime="345.66" overlapTraveltime="346.31" density="3.10" occupancy="1.55" waitingTime="0.00" speed="7.49" departed="6" arrived="0" entered="14" left="28" laneChangedFrom="0" laneChangedTo="0"/>
        <edge id="29" sampledSeconds="5821.20" traveltime="174.02" overlapTraveltime="174.90" density="2.94" occupancy="1.47" waitingTime="23.00" speed="11.36" departed="10" arrived="0" entered="27" left="31" laneChangedFrom="0" laneChangedTo="0"/>
        <edge id="3" sampledSeconds="13722.53" traveltime="221.61" overlapTraveltime="222.05" density="2.54" occupancy="1.27" waitingTime="3.00" speed="24.31" departed="6" arrived="35" entered="54" left="26" laneChangedFrom="0" laneChangedTo="0"/>
        <edge id="30" sampledSeconds="2982.41" traveltime="283.56" overlapTraveltime="284.59" density="1.29" occupancy="0.65" waitingTime="8.00" speed="8.14" departed="9" arrived="0" entered="0" left="12" laneChangedFrom="0" laneChangedTo="0"/>
        <edge id="31" sampledSeconds="3240.05" traveltime="230.92" overlapTraveltime="231.68" density="1.36" occupancy="0.68" waitingTime="1.00" speed="10.34" departed="9" arrived="0" entered="6" left="13" laneChangedFrom="0" laneChangedTo="0"/>
        <edge id="32" sampledSeconds="3427.57" traveltime="278.07" overlapTraveltime="278.81" density="1.91" occupancy="0.96" waitingTime="0.00" speed="6.44" departed="8" arrived="0" entered="6" left="12" laneChangedFrom="0" laneChangedTo="0"/>
        <edge id="33" sampledSeconds="3752.09" traveltime="114.47" overlapTraveltime="115.24" density="2.36" occupancy="1.18" waitingTime="2.00" speed="13.85" departed="3" arrived="0" entered="28" left="32" laneChangedFrom="0" laneChangedTo="0"/>
        <edge id="34" sampledSeconds="1800.71" traveltime="278.74" overlapTraveltime="279.37" density="0.70" occupancy="0.35" waitingTime="0.00" speed="9.29" departed="4" arrived="0" entered="4" left="6" laneChangedFrom="0" laneChangedTo="0"/>
        <edge id="35" sampledSeconds="4750.74" traveltime="93.34" overlapTraveltime="93.56" density="1.99" occupancy="0.99" waitingTime="0.00" speed="25.60" departed="5" arrived="0" entered="43" left="52" laneChangedFrom="0" laneChangedTo="0"/>
        <edge id="36" sampledSeconds="1263.24" traveltime="115.54" overlapTraveltime="116.10" density="0.79" occupancy="0.40" waitingTime="0.00" speed="13.74" departed="9" arrived="0" entered="3" left="9" laneChangedFrom="0" laneChangedTo="0"/>
        <edge id="37" sampledSeconds="13027.94" traveltime="188.89" overlapTraveltime="189.10" density="2.42" occupancy="1.21" waitingTime="0.00" speed="28.54" departed="5" arrived="46" entered="63" left="24" laneChangedFrom="0" laneChangedTo="0"/>
        <edge id="38" sampledSeconds="9328.55" traveltime="189.00" overlapTraveltime="189.73" density="1.73" occupancy="0.87" waitingTime="10.00" speed="28.45" departed="3" arrived="0" entered="46" left="48" laneChangedFrom="0" laneChangedTo="0"/>
        <edge id="39" sampledSeconds="3285.22" traveltime="100.90" overlapTraveltime="101.99" density="2.06" occupancy="1.03" waitingTime="15.00" speed="15.66" departed="5" arrived="0" entered="27" left="32" laneChangedFrom="0" laneChangedTo="0"/>
        <edge id="4" sampledSeconds="1760.36" traveltime="78.70" overlapTraveltime="79.48" density="1.26" occupancy="0.63" waitingTime="5.00" speed="17.58" departed="5" arrived="0" entered="18" left="22" laneChangedFrom="0" laneChangedTo="0"/>
        <edge id="40" sampledSeconds="2864.88" traveltime="279.12" overlapTraveltime="279.80" density="1.11" occupancy="0.55" waitingTime="0.00" speed="9.28" departed="5" arrived="0" entered="6" left="11" laneChangedFrom="0" laneChangedTo="0"/>
        <edge id="41" sampledSeconds="4822.94" traveltime="198.48" overlapTraveltime="199.32" density="2.69" occupancy="1.35" waitingTime="11.00" speed="9.01" departed="10" arrived="0" entered="13" left="23" laneChangedFrom="0" laneChangedTo="0"/>
        <edge id="42" sampledSeconds="1514.84" traveltime="129.70" overlapTraveltime="130.38" density="1.27" occupancy="0.64" waitingTime="0.00" speed="9.17" departed="9" arrived="0" entered="1" left="12" laneChangedFrom="0" laneChangedTo="0"/>
        <edge id="43" sampledSeconds="2704.47" traveltime="347.17" overlapTraveltime="347.87" density="1.05" occupancy="0.52" waitingTime="0.00" speed="7.45" departed="8" arrived="0" entered="0" left="8" laneChangedFrom="0" laneChangedTo="0"/>
        <edge id="44" sampledSeconds="1468.31" traveltime="198.32" overlapTraveltime="199.09" density="0.82" occupancy="0.41" waitingTime="0.00" speed="9.02" departed="6" arrived="0" entered="0" left="7" laneChangedFrom="0" laneChangedTo="0"/>
        <edge id="45" sampledSeconds="6740.06" traveltime="127.90" overlapTraveltime="128.29" density="3.39" occupancy="1.69" waitingTime="0.00" speed="15.55" departed="3" arrived="0" entered="51" left="52" laneChangedFrom="0" laneChangedTo="0"/>