<?xml version="1.0" encoding="UTF-8"?>

<!-- generated on 02/12/18 15:57:31 by SUMO Version 0.30.0
<?xml version="1.0" encoding="UTF-8"?>

<configuration xmlns:xsi="http://www.w3.org/2001/XMLSchema-instance" xsi:noNamespaceSchemaLocation="http://sumo.dlr.de/xsd/sumoConfiguration.xsd">

    <input>
        <net-file value="C:/Users/Shekar/Desktop/laptop/sumo_sim/sioux_falls/config/../network/sf_net.net.xml"/>
        <route-files value="C:/Users/Shekar/Desktop/laptop/sumo_sim/sioux_falls/config/../trips/trip.xml"/>
        <additional-files value="C:/Users/Shekar/Desktop/laptop/sumo_sim/sioux_falls/config/additional_60__0_1000.xml"/>
    </input>

    <output>
        <summary-output value="C:/Users/Shekar/Desktop/laptop/sumo_sim/sioux_falls/config/../output/summary_60__0_1000.xml"/>
    </output>

    <processing>
        <time-to-teleport value="300"/>
    </processing>

    <report>
        <log value="C:/Users/Shekar/Desktop/laptop/sumo_sim/sioux_falls/config/../output/report_60__0_1000.xml"/>
    </report>

</configuration>
-->

<meandata xmlns:xsi="http://www.w3.org/2001/XMLSchema-instance" xsi:noNamespaceSchemaLocation="http://sumo.dlr.de/xsd/meandata_file.xsd">
    <interval begin="0.00" end="1000.00" id="1">
        <edge id="1" sampledSeconds="5431.38" traveltime="222.52" overlapTraveltime="222.84" density="1.01" occupancy="0.50" waitingTime="0.00" speed="24.23" departed="6" arrived="10" entered="24" left="8" laneChangedFrom="0" laneChangedTo="0"/>
        <edge id="10" sampledSeconds="1644.64" traveltime="231.58" overlapTraveltime="232.21" density="0.69" occupancy="0.34" waitingTime="0.00" speed="10.32" departed="8" arrived="0" entered="0" left="5" laneChangedFrom="0" laneChangedTo="0"/>
        <edge id="11" sampledSeconds="2229.99" traveltime="84.80" overlapTraveltime="85.11" density="1.25" occupancy="0.62" waitingTime="0.00" speed="21.10" departed="4" arrived="0" entered="23" left="26" laneChangedFrom="0" laneChangedTo="0"/>
        <edge id="12" sampledSeconds="4434.77" traveltime="126.56" overlapTraveltime="127.26" density="2.23" occupancy="1.11" waitingTime="3.00" speed="15.68" departed="5" arrived="0" entered="31" left="34" laneChangedFrom="0" laneChangedTo="0"/>
        <edge id="13" sampledSeconds="1060.20" traveltime="132.41" overlapTraveltime="133.09" density="0.89" occupancy="0.45" waitingTime="0.00" speed="8.98" departed="8" arrived="0" entered="0" left="8" laneChangedFrom="0" laneChangedTo="0"/>
        <edge id="14" sampledSeconds="4297.84" traveltime="78.04" overlapTraveltime="78.31" density="3.09" occupancy="1.54" waitingTime="0.00" speed="17.84" departed="5" arrived="17" entered="56" left="32" laneChangedFrom="0" laneChangedTo="0"/>
        <edge id="15" sampledSeconds="2906.33" traveltime="126.68" overlapTraveltime="127.09" density="1.46" occupancy="0.73" waitingTime="0.00" speed="15.70" departed="10" arrived="0" entered="15" left="21" laneChangedFrom="0" laneChangedTo="0"/>
        <edge id="16" sampledSeconds="2567.90" traveltime="63.88" overlapTraveltime="64.56" density="2.16" occupancy="1.08" waitingTime="0.00" speed="18.52" departed="5" arrived="0" entered="36" left="38" laneChangedFrom="0" laneChangedTo="0"/>
        <edge id="17" sampledSeconds="2946.59" traveltime="130.57" overlapTraveltime="131.25" density="1.48" occupancy="0.74" waitingTime="1.00" speed="15.21" departed="11" arrived="0" entered="14" left="21" laneChangedFrom="0" laneChangedTo="0"/>
        <edge id="18" sampledSeconds="1121.92" traveltime="48.52" overlapTraveltime="48.82" density="0.94" occupancy="0.47" waitingTime="0.00" speed="24.52" departed="4" arrived="0" entered="19" left="23" laneChangedFrom="0" laneChangedTo="0"/>
        <edge id="19" sampledSeconds="3785.09" traveltime="63.68" overlapTraveltime="64.13" density="3.18" occupancy="1.59" waitingTime="1.00" speed="18.64" departed="10" arrived="0" entered="51" left="56" laneChangedFrom="0" laneChangedTo="0"/>
        <edge id="2" sampledSeconds="736.52" traveltime="60.93" overlapTraveltime="61.51" density="0.53" occupancy="0.26" waitingTime="0.00" speed="22.71" departed="7" arrived="0" entered="5" left="12" laneChangedFrom="0" laneChangedTo="0"/>
        <edge id="20" sampledSeconds="4976.42" traveltime="129.06" overlapTraveltime="129.42" density="2.50" occupancy="1.25" waitingTime="0.00" speed="15.43" departed="9" arrived="15" entered="33" left="20" laneChangedFrom="0" laneChangedTo="0"/>
        <edge id="21" sampledSeconds="911.08" traveltime="257.64" overlapTraveltime="258.73" density="0.46" occupancy="0.23" waitingTime="0.00" speed="7.71" departed="4" arrived="0" entered="0" left="3" laneChangedFrom="0" laneChangedTo="0"/>
        <edge id="22" sampledSeconds="3275.80" traveltime="119.38" overlapTraveltime="119.88" density="2.75" occupancy="1.38" waitingTime="0.00" speed="9.97" departed="5" arrived="0" entered="25" left="25" laneChangedFrom="0" laneChangedTo="0"/>
        <edge id="23" sampledSeconds="1245.16" traveltime="132.65" overlapTraveltime="133.53" density="1.05" occupancy="0.52" waitingTime="2.00" speed="8.95" departed="6" arrived="0" entered="5" left="8" laneChangedFrom="0" laneChangedTo="0"/>
        <edge id="24" sampledSeconds="2851.38" traveltime="258.43" overlapTraveltime="259.58" density="1.43" occupancy="0.72" waitingTime="4.00" speed="7.69" departed="6" arrived="0" entered="5" left="11" laneChangedFrom="0" laneChangedTo="0"/>
        <edge id="25" sampledSeconds="2081.29" traveltime="226.07" overlapTraveltime="226.98" density="1.75" occupancy="0.87" waitingTime="0.00" speed="5.27" departed="8" arrived="0" entered="3" left="6" laneChangedFrom="0" laneChangedTo="0"/>
        <edge id="26" sampledSeconds="453.12" traveltime="226.65" overlapTraveltime="227.53" density="0.38" occupancy="0.19" waitingTime="0.00" speed="5.25" departed="2" arrived="0" entered="0" left="2" laneChangedFrom="0" laneChangedTo="0"/>
        <edge id="27" sampledSeconds="2234.37" traveltime="277.83" overlapTraveltime="278.63" density="1.25" occupancy="0.62" waitingTime="0.00" speed="6.44" departed="4" arrived="0" entered="7" left="6" laneChangedFrom="0" laneChangedTo="0"/>
        <edge id="28" sampledSeconds="4757.97" traveltime="346.01" overlapTraveltime="346.70" density="1.84" occupancy="0.92" waitingTime="0.00" speed="7.48" departed="11" arrived="0" entered="10" left="7" laneChangedFrom="0" laneChangedTo="0"/>
        <edge id="29" sampledSeconds="3236.96" traveltime="174.62" overlapTraveltime="175.59" density="1.63" occupancy="0.82" waitingTime="16.00" speed="11.32" departed="4" arrived="0" entered="15" left="17" laneChangedFrom="0" laneChangedTo="0"/>
        <edge id="3" sampledSeconds="6017.87" traveltime="221.73" overlapTraveltime="222.04" density="1.12" occupancy="0.56" waitingTime="0.00" speed="24.31" departed="3" arrived="10" entered="36" left="7" laneChangedFrom="0" laneChangedTo="0"/>
        <edge id="30" sampledSeconds="856.11" traveltime="284.10" overlapTraveltime="284.71" density="0.37" occupancy="0.19" waitingTime="0.00" speed="8.14" departed="6" arrived="0" entered="0" left="1" laneChangedFrom="0" laneChangedTo="0"/>
        <edge id="31" sampledSeconds="1036.89" traveltime="233.19" overlapTraveltime="234.19" density="0.43" occupancy="0.22" waitingTime="6.00" speed="10.23" departed="4" arrived="0" entered="1" left="4" laneChangedFrom="0" laneChangedTo="0"/>
        <edge id="32" sampledSeconds="2369.50" traveltime="277.63" overlapTraveltime="278.33" density="1.32" occupancy="0.66" waitingTime="0.00" speed="6.45" departed="6" arrived="0" entered="3" left="8" laneChangedFrom="0" laneChangedTo="0"/>
        <edge id="33" sampledSeconds="2404.08" traveltime="114.55" overlapTraveltime="115.21" density="1.51" occupancy="0.76" waitingTime="0.00" speed="13.85" departed="4" arrived="0" entered="20" left="19" laneChangedFrom="0" laneChangedTo="0"/>
        <edge id="34" sampledSeconds="1383.74" traveltime="279.96" overlapTraveltime="280.51" density="0.53" occupancy="0.27" waitingTime="0.00" speed="9.25" departed="6" arrived="0" entered="0" left="4" laneChangedFrom="0" laneChangedTo="0"/>
        <edge id="35" sampledSeconds="2515.15" traveltime="95.01" overlapTraveltime="95.29" density="1.05" occupancy="0.53" waitingTime="0.00" speed="25.14" departed="7" arrived="0" entered="24" left="23" laneChangedFrom="0" laneChangedTo="0"/>
        <edge id="36" sampledSeconds="540.37" traveltime="115.28" overlapTraveltime="115.83" density="0.34" occupancy="0.17" waitingTime="0.00" speed="13.77" departed="4" arrived="0" entered="1" left="4" laneChangedFrom="0" laneChangedTo="0"/>
        <edge id="37" sampledSeconds="8386.80" traveltime="188.79" overlapTraveltime="189.05" density="1.56" occupancy="0.78" waitingTime="0.00" speed="28.55" departed="4" arrived="18" entered="47" left="20" laneChangedFrom="0" laneChangedTo="0"/>
        <edge id="38" sampledSeconds="4462.21" traveltime="189.74" overlapTraveltime="190.49" density="0.83" occupancy="0.41" waitingTime="7.00" speed="28.33" departed="5" arrived="0" entered="21" left="22" laneChangedFrom="0" laneChangedTo="0"/>
        <edge id="39" sampledSeconds="2711.37" traveltime="101.31" overlapTraveltime="101.93" density="1.70" occupancy="0.85" waitingTime="0.00" speed="15.67" departed="8" arrived="0" entered="20" left="26" laneChangedFrom="0" laneChangedTo="0"/>
        <edge id="4" sampledSeconds="1380.09" traveltime="80.71" overlapTraveltime="81.41" density="0.99" occupancy="0.50" waitingTime="1.00" speed="17.16" departed="13" arrived="0" entered="4" left="17" laneChangedFrom="0" laneChangedTo="0"/>
        <edge id="40" sampledSeconds="2751.10" traveltime="278.45" overlapTraveltime="279.10" density="1.06" occupancy="0.53" waitingTime="0.00" speed="9.30" departed="6" arrived="0" entered="6" left="9" laneChangedFrom="0" laneChangedTo="0"/>
        <edge id="41" sampledSeconds="3333.78" traveltime="198.37" overlapTraveltime="199.21" density="1.86" occupancy="0.93" waitingTime="6.00" speed="9.01" departed="9" arrived="0" entered="10" left="15" laneChangedFrom="0" laneChangedTo="0"/>
        <edge id="42" sampledSeconds="694.81" traveltime="130.05" overlapTraveltime="130.63" density="0.58" occupancy="0.29" waitingTime="0.00" speed="9.15" departed="7" arrived="0" entered="0" left="5" laneChangedFrom="0" laneChangedTo="0"/>
        <edge id="43" sampledSeconds="3110.42" traveltime="347.58" overlapTraveltime="348.38" density="1.20" occupancy="0.60" waitingTime="2.00" speed="7.44" departed="11" arrived="0" entered="0" left="7" laneChangedFrom="0" laneChangedTo="0"/>
        <edge id="44" sampledSeconds="1041.32" traveltime="198.35" overlapTraveltime="199.00" density="0.58" occupancy="0.29" waitingTime="0.00" speed="9.02" departed="5" arrived="0" entered="2" left="5" laneChangedFrom="0" laneChangedTo="0"/>
        <edge id="45" sampledSeconds="4046.32" traveltime="128.05" overlapTraveltime="128.44" density="2.03" occupancy="1.02" waitingTime="0.00" speed="15.54" departed="4" arrived="0" entered="32" left="28" laneChangedFrom="0" laneChangedTo="0"/>
        <edge id="46" sampledSeconds="2481.74" traveltime="71.47" overlapTraveltime="72.00" density="2.08" occupancy="1.04" waitingTime="0.00" speed="16.60" departed="5" arrived="0" entered="34" left="29" laneChangedFrom="0" laneChangedTo="0"/>
        <edge id="47" sampledSeconds="5223.15" traveltime="119.12" overlapTraveltime="119.61" density="4.39" occupancy="2.19" waitingTime="0.00" speed="10.00" departed="5" arrived="0" entered="41" left="40" laneChangedFrom="0" laneChangedTo="0"/>
        <edge id="48" sampledSeconds="1839.77" traveltime="173.60" overlapTraveltime="175.01" density="0.93" occupancy="0.46" waitingTime="2.00" speed="11.35" departed="9" arrived="0" entered="3" left="9" laneChangedFrom="0" laneChangedTo="0"/>
        <edge id="49" sampledSeconds="1790.05" traveltime="40.78" overlapTraveltime="41.13" density="1.51" occupancy="0.75" waitingTime="0.00" speed="29.00" departed="10" arrived="0" entered="34" left="43" laneChangedFrom="0" laneChangedTo="0"/>
        <edge id="5" sampledSeconds="1991.13" traveltime="58.73" overlapTraveltime="58.97" density="1.43" occupancy="0.72" waitingTime="0.00" speed="23.69" departed="6" arrived="11" entered="29" left="22" laneChangedFrom="0" laneChangedTo="0"/>
        <edge id="50" sampledSeconds="4589.68" traveltime="158.90" overlapTraveltime="159.61" density="2.31" occupancy="1.15" waitingTime="0.00" speed="12.49" departed="9" arrived="0" entered="21" left="28" laneChangedFrom="0" laneChangedTo="0"/>
        <edge id="51" sampledSeconds="615.78" traveltime="282.97" overlapTraveltime="283.64" density="0.27" occupancy="0.13" waitingTime="0.00" speed="8.17" departed="3" arrived="0" entered="0" left="2" laneChangedFrom="0" laneChangedTo="0"/>
        <edge id="52" sampledSeconds="2089.33" traveltime="40.34" overlapTraveltime="40.86" density="1.76" occupancy="0.88" waitingTime="6.00" speed="29.19" departed="10" arrived="0" entered="44" left="49" laneChangedFrom="0" laneChangedTo="0"/>
        <edge id="53" sampledSeconds="5241.20" traveltime="111.01" overlapTraveltime="111.59" density="3.77" occupancy="1.88" waitingTime="2.00" speed="12.52" departed="11" arrived="0" entered="40" left="41" laneChangedFrom="0" laneChangedTo="0"/>
        <edge id="54" sampledSeconds="1379.68" traveltime="49.15" overlapTraveltime="49.44" density="1.16" occupancy="0.58" waitingTime="0.00" speed="24.21" departed="4" arrived="14" entered="25" left="13" laneChangedFrom="0" laneChangedTo="0"/>
        <edge id="55" sampledSeconds="1577.31" traveltime="161.11" overlapTraveltime="161.91" density="0.79" occupancy="0.40" waitingTime="0.00" speed="12.32" departed="10" arrived="0" entered="1" left="9" laneChangedFrom="0" laneChangedTo="0"/>
        <edge id="56" sampledSeconds="6601.23" traveltime="214.86" overlapTraveltime="215.10" density="1.15" occupancy="0.58" waitingTime="0.00" speed="26.67" departed="9" arrived="8" entered="30" left="15" laneChangedFrom="0" laneChangedTo="0"/>
        <edge id="57" sampledSeconds="3048.47" traveltime="129.13" overlapTraveltime="129.73" density="1.53" occupancy="0.77" waitingTime="0.00" speed="15.38" departed="4" arrived="0" entered="22" left="21" laneChangedFrom="0" laneChangedTo="0"/>
        <edge id="58" sampledSeconds="4657.55" traveltime="110.37" overlapTraveltime="110.76" density="3.35" occupancy="1.67" waitingTime="0.00" speed="12.61" departed="7" arrived="0" entered="37" left="41" laneChangedFrom="0" laneChangedTo="0"/>
        <edge id="59" sampledSeconds="5123.49" traveltime="240.80" overlapTraveltime="241.31" density="1.85" occupancy="0.92" waitingTime="0.00" speed="11.52" departed="5" arrived="11" entered="24" left="3" laneChangedFrom="0" laneChangedTo="0"/>
        <edge id="6" sampledSeconds="1826.18" traveltime="95.03" overlapTraveltime="95.39" density="1.15" occupancy="0.57" waitingTime="0.00" speed="16.73" departed="7" arrived="0" entered="14" left="19" laneChangedFrom="0" laneChangedTo="0"/>
        <edge id="60" sampledSeconds="1123.46" traveltime="219.77" overlapTraveltime="220.19" density="0.20" occupancy="0.10" waitingTime="0.00" speed="26.06" departed="6" arrived="0" entered="0" left="5" laneChangedFrom="0" laneChangedTo="0"/>
        <edge id="61" sampledSeconds="4166.53" traveltime="241.10" overlapTraveltime="241.76" density="1.50" occupancy="0.75" waitingTime="3.00" speed="11.50" departed="4" arrived="0" entered="15" left="14" laneChangedFrom="0" laneChangedTo="0"/>
        <edge id="62" sampledSeconds="4054.51" traveltime="222.72" overlapTraveltime="223.59" density="2.04" occupancy="1.02" waitingTime="13.00" speed="8.90" departed="5" arrived="0" entered="15" left="17" laneChangedFrom="0" laneChangedTo="0"/>
        <edge id="63" sampledSeconds="1837.75" traveltime="217.75" overlapTraveltime="218.38" density="0.72" occupancy="0.36" waitingTime="0.00" speed="11.66" departed="5" arrived="0" entered="4" left="8" laneChangedFrom="0" laneChangedTo="0"/>
        <edge id="64" sampledSeconds="4990.27" traveltime="221.80" overlapTraveltime="222.47" density="2.51" occupancy="1.26" waitingTime="1.00" speed="8.94" departed="4" arrived="8" entered="23" left="8" laneChangedFrom="0" laneChangedTo="0"/>
        <edge id="65" sampledSeconds="3087.15" traveltime="126.82" overlapTraveltime="127.31" density="1.95" occupancy="0.97" waitingTime="0.00" speed="12.50" departed="11" arrived="0" entered="14" left="23" laneChangedFrom="0" laneChangedTo="0"/>
        <edge id="66" sampledSeconds="4402.81" traveltime="127.49" overlapTraveltime="127.86" density="2.46" occupancy="1.23" waitingTime="0.00" speed="14.04" departed="7" arrived="0" entered="30" left="30" laneChangedFrom="0" laneChangedTo="0"/>
        <edge id="67" sampledSeconds="1925.78" traveltime="71.50" overlapTraveltime="71.88" density="1.62" occupancy="0.81" waitingTime="0.00" speed="16.63" departed="8" arrived="0" entered="20" left="25" laneChangedFrom="0" laneChangedTo="0"/>
        <edge id="68" sampledSeconds="6713.86" traveltime="254.33" overlapTraveltime="254.89" density="2.64" occupancy="1.32" waitingTime="0.00" speed="9.99" departed="6" arrived="10" entered="26" left="8" laneChangedFrom="0" laneChangedTo="0"/>
        <edge id="69" sampledSeconds="1877.70" traveltime="60.31" overlapTraveltime="60.67" density="1.18" occupancy="0.59" waitingTime="0.00" speed="26.24" departed="8" arrived="0" entered="25" left="30" laneChangedFrom="0" laneChangedTo="0"/>
        <edge id="7" sampledSeconds="3097.16" traveltime="95.10" overlapTraveltime="95.31" density="1.30" occupancy="0.65" waitingTime="0.00" speed="25.13" departed="5" arrived="0" entered="28" left="31" laneChangedFrom="0" laneChangedTo="0"/>
        <edge id="70" sampledSeconds="947.44" traveltime="174.02" overlapTraveltime="174.75" density="0.53" occupancy="0.26" waitingTime="0.00" speed="10.27" departed="6" arrived="0" entered="0" left="5" laneChangedFrom="0" laneChangedTo="0"/>
        <edge id="71" sampledSeconds="945.23" traveltime="129.76" overlapTraveltime="130.40" density="0.79" occupancy="0.40" waitingTime="0.00" speed="9.17" departed="7" arrived="0" entered="1" left="7" laneChangedFrom="0" laneChangedTo="0"/>
        <edge id="72" sampledSeconds="2469.16" traveltime="173.86" overlapTraveltime="174.74" density="1.38" occupancy="0.69" waitingTime="9.00" speed="10.28" departed="6" arrived="0" entered="11" left="11" laneChangedFrom="0" laneChangedTo="0"/>
        <edge id="73" sampledSeconds="1649.67" traveltime="154.31" overlapTraveltime="155.00" density="1.04" occupancy="0.52" waitingTime="0.00" speed="10.29" departed="7" arrived="0" entered="6" left="9" laneChangedFrom="0" laneChangedTo="0"/>
        <edge id="74" sampledSeconds="4505.10" traveltime="100.47" overlapTraveltime="100.80" density="2.83" occupancy="1.41" waitingTime="0.00" speed="15.84" departed="5" arrived="18" entered="48" left="21" laneChangedFrom="0" laneChangedTo="0"/>
        <edge id="75" sampledSeconds="2867.84" traveltime="128.97" overlapTraveltime="129.75" density="1.60" occupancy="0.80" waitingTime="0.00" speed="13.84" departed="8" arrived="0" entered="16" left="20" laneChangedFrom="0" laneChangedTo="0"/>
        <edge id="76" sampledSeconds="1275.44" traveltime="155.22" overlapTraveltime="156.00" density="0.80" occupancy="0.40" waitingTime="0.00" speed="10.23" departed="8" arrived="0" entered="1" left="8" laneChangedFrom="0" laneChangedTo="0"/>
        <edge id="8" sampledSeconds="3591.86" traveltime="95.69" overlapTraveltime="96.42" density="2.26" occupancy="1.13" waitingTime="0.00" speed="16.55" departed="10" arrived="0" entered="28" left="36" laneChangedFrom="0" laneChangedTo="0"/>
        <edge id="9" sampledSeconds="2261.51" traveltime="85.12" overlapTraveltime="85.55" density="1.26" occupancy="0.63" waitingTime="0.00" speed="20.99" departed="6" arrived="0" entered="21" left="25" laneChangedFrom="0" laneChangedTo="0"/>
    </interval>
    <interval begin="1000.00" end="2000.00" id="2">
        <edge id="1" sampledSeconds="13418.81" traveltime="222.00" overlapTraveltime="222.26" density="2.49" occupancy="1.24" waitingTime="0.00" speed="24.29" departed="8" arrived="40" entered="56" left="17" laneChangedFrom="0" laneChangedTo="0"/>
        <edge id="10" sampledSeconds="2561.26" traveltime="231.58" overlapTraveltime="232.34" density="1.07" occupancy="0.54" waitingTime="1.00" speed="10.31" departed="11" arrived="0" entered="0" left="12" laneChangedFrom="0" laneChangedTo="0"/>
        <edge id="11" sampledSeconds="3869.70" traveltime="85.34" overlapTraveltime="85.69" density="2.16" occupancy="1.08" waitingTime="0.00" speed="20.95" departed="12" arrived="0" entered="35" left="41" laneChangedFrom="0" laneChangedTo="0"/>
        <edge id="12" sampledSeconds="6210.18" traveltime="126.33" overlapTraveltime="127.07" density="3.12" occupancy="1.56" waitingTime="7.00" speed="15.70" departed="4" arrived="0" entered="46" left="47" laneChangedFrom="0" laneChangedTo="0"/>
        <edge id="13" sampledSeconds="693.26" traveltime="133.25" overlapTraveltime="134.09" density="0.58" occupancy="0.29" waitingTime="0.00" speed="8.92" departed="6" arrived="0" entered="0" left="4" laneChangedFrom="0" laneChangedTo="0"/>
        <edge id="14" sampledSeconds="6879.67" traveltime="78.04" overlapTraveltime="78.34" density="4.94" occupancy="2.47" waitingTime="0.00" speed="17.83" departed="8" arrived="33" entered="80" left="52" laneChangedFrom="0" laneChangedTo="0"/>
        <edge id="15" sampledSeconds="3941.12" traveltime="125.89" overlapTraveltime="126.29" density="1.98" occupancy="0.99" waitingTime="0.00" speed="15.80" departed="7" arrived="0" entered="23" left="32" laneChangedFrom="0" laneChangedTo="0"/>
        <edge id="16" sampledSeconds="3176.12" traveltime="63.64" overlapTraveltime="64.36" density="2.67" occupancy="1.33" waitingTime="0.00" speed="18.57" departed="3" arrived="0" entered="46" left="50" laneChangedFrom="0" laneChangedTo="0"/>
        <edge id="17" sampledSeconds="3517.05" traveltime="130.18" overlapTraveltime="131.03" density="1.77" occupancy="0.88" waitingTime="1.00" speed="15.24" departed="8" arrived="0" entered="18" left="28" laneChangedFrom="0" laneChangedTo="0"/>
        <edge id="18" sampledSeconds="1861.44" traveltime="49.33" overlapTraveltime="50.03" density="1.56" occupancy="0.78" waitingTime="2.00" speed="23.93" departed="8" arrived="0" entered="31" left="36" laneChangedFrom="0" laneChangedTo="0"/>
        <edge id="19" sampledSeconds="5133.61" traveltime="63.23" overlapTraveltime="63.65" density="4.31" occupancy="2.16" waitingTime="0.00" speed="18.78" departed="3" arrived="0" entered="78" left="81" laneChangedFrom="0" laneChangedTo="0"/>
        <edge id="2" sampledSeconds="664.29" traveltime="59.83" overlapTraveltime="60.47" density="0.48" occupancy="0.24" waitingTime="1.00" speed="23.10" departed="4" arrived="0" entered="7" left="11" laneChangedFrom="0" laneChangedTo="0"/>
        <edge id="20" sampledSeconds="9263.20" traveltime="128.61" overlapTraveltime="128.96" density="4.65" occupancy="2.33" waitingTime="4.00" speed="15.49" departed="12" arrived="40" entered="59" left="34" laneChangedFrom="0" laneChangedTo="0"/>
        <edge id="21" sampledSeconds="1914.22" traveltime="257.46" overlapTraveltime="258.26" density="0.96" occupancy="0.48" waitingTime="1.00" speed="7.73" departed="7" arrived="0" entered="0" left="7" laneChangedFrom="0" laneChangedTo="0"/>
        <edge id="22" sampledSeconds="5021.58" traveltime="119.62" overlapTraveltime="120.25" density="4.22" occupancy="2.11" waitingTime="1.00" speed="9.94" departed="14" arrived="0" entered="27" left="43" laneChangedFrom="0" laneChangedTo="0"/>
        <edge id="23" sampledSeconds="1526.10" traveltime="131.96" overlapTraveltime="132.92" density="1.28" occupancy="0.64" waitingTime="4.00" speed="8.99" departed="3" arrived="0" entered="8" left="12" laneChangedFrom="0" laneChangedTo="0"/>
        <edge id="24" sampledSeconds="3859.84" traveltime="258.01" overlapTraveltime="259.05" density="1.94" occupancy="0.97" waitingTime="10.00" speed="7.70" departed="11" arrived="0" entered="5" left="13" laneChangedFrom="0" laneChangedTo="0"/>
        <edge id="25" sampledSeconds="2860.47" traveltime="226.39" overlapTraveltime="227.34" density="2.40" occupancy="1.20" waitingTime="0.00" speed="5.26" departed="7" arrived="0" entered="5" left="14" laneChangedFrom="0" laneChangedTo="0"/>
        <edge id="26" sampledSeconds="1613.49" traveltime="226.32" overlapTraveltime="227.16" density="1.36" occupancy="0.68" waitingTime="0.00" speed="5.26" departed="8" arrived="0" entered="0" left="7" laneChangedFrom="0" laneChangedTo="0"/>
        <edge id="27" sampledSeconds="3937.52" traveltime="278.13" overlapTraveltime="278.85" density="2.20" occupancy="1.10" waitingTime="0.00" speed="6.44" departed="4" arrived="0" entered="11" left="14" laneChangedFrom="0" laneChangedTo="0"/>
        <edge id="28" sampledSeconds="8007.66" traveltime="345.56" overlapTraveltime="346.19" density="3.09" occupancy="1.55" waitingTime="0.00" speed="7.49" departed="6" arrived="0" entered="14" left="28" laneChangedFrom="0" laneChangedTo="0"/>
        <edge id="29" sampledSeconds="5506.14" traveltime="175.26" overlapTraveltime="176.39" density="2.78" occupancy="1.39" waitingTime="40.00" speed="11.26" departed="10" arrived="0" entered="25" left="29" laneChangedFrom="0" laneChangedTo="0"/>
        <edge id="3" sampledSeconds="13755.26" traveltime="221.61" overlapTraveltime="222.01" density="2.55" occupancy="1.28" waitingTime="0.00" speed="24.32" departed="6" arrived="38" entered="51" left="28" laneChangedFrom="0" laneChangedTo="0"/>
        <edge id="30" sampledSeconds="2979.86" traveltime="283.40" overlapTraveltime="284.33" density="1.29" occupancy="0.64" waitingTime="11.00" speed="8.15" departed="9" arrived="0" entered="0" left="12" laneChangedFrom="0" laneChangedTo="0"/>
        <edge id="31" sampledSeconds="3239.30" traveltime="231.06" overlapTraveltime="231.79" density="1.36" occupancy="0.68" waitingTime="1.00" speed="10.33" departed="9" arrived="0" entered="6" left="13" laneChangedFrom="0" laneChangedTo="0"/>
        <edge id="32" sampledSeconds="2869.31" traveltime="278.39" overlapTraveltime="279.13" density="1.60" occupancy="0.80" waitingTime="0.00" speed="6.43" departed="8" arrived="0" entered="4" left="10" laneChangedFrom="0" laneChangedTo="0"/>
        <edge id="33" sampledSeconds="3769.45" traveltime="114.65" overlapTraveltime="115.41" density="2.37" occupancy="1.18" waitingTime="9.00" speed="13.83" departed="3" arrived="0" entered="29" left="32" laneChangedFrom="0" laneChangedTo="0"/>
        <edge id="34" sampledSeconds="2352.37" traveltime="278.11" overlapTraveltime="278.77" density="0.91" occupancy="0.45" waitingTime="0.00" speed="9.31" departed="4" arrived="0" entered="6" left="8" laneChangedFrom="0" laneChangedTo="0"/>
        <edge id="35" sampledSeconds="4462.92" traveltime="93.38" overlapTraveltime="93.61" density="1.87" occupancy="0.93" waitingTime="0.00" speed="25.59" departed="5" arrived="0" entered="40" left="49" laneChangedFrom="0" laneChangedTo="0"/>
        <edge id="36" sampledSeconds="1262.88" traveltime="115.46" overlapTraveltime="116.02" density="0.79" occupancy="0.40" waitingTime="0.00" speed="13.75" departed="9" arrived="0" entered="3" left="9" laneChangedFrom="0" laneChangedTo="0"/>
        <edge id="37" sampledSeconds="12978.49" traveltime="188.76" overlapTraveltime="188.97" density="2.41" occupancy="1.20" waitingTime="0.00" speed="28.56" departed="5" arrived="47" entered="62" left="24" laneChangedFrom="0" laneChangedTo="0"/>
        <edge id="38" sampledSeconds="8987.40" traveltime="189.00" overlapTraveltime="189.52" density="1.67" occupancy="0.83" waitingTime="3.00" speed="28.48" departed="3" arrived="0" entered="45" left="46" laneChangedFrom="0" laneChangedTo="0"/>
        <edge id="39" sampledSeconds="3256.03" traveltime="100.63" overlapTraveltime="101.25" density="2.05" occupancy="1.02" waitingTime="0.00" speed="15.77" departed="5" arrived="0" entered="27" left="32" laneChangedFrom="0" laneChangedTo="0"/>
        <edge id="4" sampledSeconds="1748.52" traveltime="78.60" overlapTraveltime="78.97" density="1.26" occupancy="0.63" waitingTime="0.00" speed="17.69" departed="5" arrived="0" entered="18" left="21" laneChangedFrom="0" laneChangedTo="0"/>
        <edge id="40" sampledSeconds="2762.02" traveltime="278.65" overlapTraveltime="279.32" density="1.07" occupancy="0.53" waitingTime="0.00" speed="9.29" departed="5" arrived="0" entered="6" left="10" laneChangedFrom="0" laneChangedTo="0"/>
        <edge id="41" sampledSeconds="5208.83" traveltime="197.97" overlapTraveltime="198.80" density="2.91" occupancy="1.45" waitingTime="5.00" speed="9.03" departed="10" arrived="0" entered="15" left="25" laneChangedFrom="0" laneChangedTo="0"/>
        <edge id="42" sampledSeconds="1508.90" traveltime="129.28" overlapTraveltime="129.93" density="1.27" occupancy="0.63" waitingTime="0.00" speed="9.20" departed="9" arrived="0" entered="1" left="12" laneChangedFrom="0" laneChangedTo="0"/>
        <edge id="43" sampledSeconds="2714.37" traveltime="348.19" overlapTraveltime="349.02" density="1.05" occupancy="0.52" waitingTime="7.00" speed="7.43" departed="8" arrived="0" entered="0" left="8" laneChangedFrom="0" laneChangedTo="0"/>
        <edge id="44" sampledSeconds="1464.90" traveltime="197.91" overlapTraveltime="198.59" density="0.82" occupancy="0.41" waitingTime="0.00" speed="9.04" departed="6" arrived="0" entered="0" left="7" laneChangedFrom="0" laneChangedTo="0"/>
        <edge id="45" sampledSeconds="7163.37" traveltime="127.87" overlapTraveltime="128.27" density="3.60" occupancy="1.80" waitingTime="0.00" speed="15.56" departed="3" arrived="0" entered="53" left="56" laneChangedFrom="0" laneChangedTo="0"/>