<?xml version="1.0" encoding="UTF-8"?>

<!-- generated on 02/12/18 15:54:23 by SUMO Version 0.30.0
<?xml version="1.0" encoding="UTF-8"?>

<configuration xmlns:xsi="http://www.w3.org/2001/XMLSchema-instance" xsi:noNamespaceSchemaLocation="http://sumo.dlr.de/xsd/sumoConfiguration.xsd">

    <input>
        <net-file value="C:/Users/Shekar/Desktop/laptop/sumo_sim/sioux_falls/config/../network/sf_net.net.xml"/>
        <route-files value="C:/Users/Shekar/Desktop/laptop/sumo_sim/sioux_falls/config/../trips/trip.xml"/>
        <additional-files value="C:/Users/Shekar/Desktop/laptop/sumo_sim/sioux_falls/config/additional_55__0_1000.xml"/>
    </input>

    <output>
        <summary-output value="C:/Users/Shekar/Desktop/laptop/sumo_sim/sioux_falls/config/../output/summary_55__0_1000.xml"/>
    </output>

    <processing>
        <time-to-teleport value="300"/>
    </processing>

    <report>
        <log value="C:/Users/Shekar/Desktop/laptop/sumo_sim/sioux_falls/config/../output/report_55__0_1000.xml"/>
    </report>

</configuration>
-->

<meandata xmlns:xsi="http://www.w3.org/2001/XMLSchema-instance" xsi:noNamespaceSchemaLocation="http://sumo.dlr.de/xsd/meandata_file.xsd">
    <interval begin="0.00" end="1000.00" id="1">
        <edge id="1" sampledSeconds="5440.26" traveltime="222.30" overlapTraveltime="222.63" density="1.01" occupancy="0.50" waitingTime="0.00" speed="24.25" departed="6" arrived="10" entered="24" left="8" laneChangedFrom="0" laneChangedTo="0"/>
        <edge id="10" sampledSeconds="1645.75" traveltime="231.81" overlapTraveltime="232.41" density="0.69" occupancy="0.34" waitingTime="0.00" speed="10.31" departed="8" arrived="0" entered="0" left="5" laneChangedFrom="0" laneChangedTo="0"/>
        <edge id="11" sampledSeconds="2229.76" traveltime="84.79" overlapTraveltime="85.11" density="1.25" occupancy="0.62" waitingTime="0.00" speed="21.10" departed="4" arrived="0" entered="23" left="26" laneChangedFrom="0" laneChangedTo="0"/>
        <edge id="12" sampledSeconds="4449.47" traveltime="126.88" overlapTraveltime="127.64" density="2.24" occupancy="1.12" waitingTime="9.00" speed="15.63" departed="5" arrived="0" entered="31" left="34" laneChangedFrom="0" laneChangedTo="0"/>
        <edge id="13" sampledSeconds="1062.48" traveltime="132.70" overlapTraveltime="133.38" density="0.89" occupancy="0.45" waitingTime="0.00" speed="8.96" departed="8" arrived="0" entered="0" left="8" laneChangedFrom="0" laneChangedTo="0"/>
        <edge id="14" sampledSeconds="4331.01" traveltime="78.17" overlapTraveltime="78.45" density="3.11" occupancy="1.56" waitingTime="0.00" speed="17.81" departed="5" arrived="18" entered="56" left="32" laneChangedFrom="0" laneChangedTo="0"/>
        <edge id="15" sampledSeconds="2912.55" traveltime="126.57" overlapTraveltime="126.96" density="1.46" occupancy="0.73" waitingTime="0.00" speed="15.72" departed="10" arrived="0" entered="15" left="21" laneChangedFrom="0" laneChangedTo="0"/>
        <edge id="16" sampledSeconds="2501.14" traveltime="63.91" overlapTraveltime="64.58" density="2.10" occupancy="1.05" waitingTime="0.00" speed="18.51" departed="5" arrived="0" entered="35" left="37" laneChangedFrom="0" laneChangedTo="0"/>
        <edge id="17" sampledSeconds="3324.87" traveltime="130.30" overlapTraveltime="130.98" density="1.67" occupancy="0.83" waitingTime="0.00" speed="15.25" departed="11" arrived="0" entered="17" left="24" laneChangedFrom="0" laneChangedTo="0"/>
        <edge id="18" sampledSeconds="1135.64" traveltime="48.67" overlapTraveltime="49.41" density="0.95" occupancy="0.48" waitingTime="5.00" speed="24.22" departed="4" arrived="0" entered="19" left="23" laneChangedFrom="0" laneChangedTo="0"/>
        <edge id="19" sampledSeconds="3723.00" traveltime="63.71" overlapTraveltime="64.12" density="3.13" occupancy="1.56" waitingTime="0.00" speed="18.64" departed="10" arrived="0" entered="51" left="55" laneChangedFrom="0" laneChangedTo="0"/>
        <edge id="2" sampledSeconds="741.36" traveltime="61.40" overlapTraveltime="61.91" density="0.53" occupancy="0.27" waitingTime="0.00" speed="22.56" departed="7" arrived="0" entered="5" left="12" laneChangedFrom="0" laneChangedTo="0"/>
        <edge id="20" sampledSeconds="5051.88" traveltime="129.26" overlapTraveltime="129.67" density="2.54" occupancy="1.27" waitingTime="2.00" speed="15.40" departed="9" arrived="15" entered="35" left="20" laneChangedFrom="0" laneChangedTo="0"/>
        <edge id="21" sampledSeconds="911.43" traveltime="257.85" overlapTraveltime="258.69" density="0.46" occupancy="0.23" waitingTime="0.00" speed="7.71" departed="4" arrived="0" entered="0" left="3" laneChangedFrom="0" laneChangedTo="0"/>
        <edge id="22" sampledSeconds="3096.67" traveltime="119.31" overlapTraveltime="119.80" density="2.60" occupancy="1.30" waitingTime="0.00" speed="9.98" departed="5" arrived="0" entered="23" left="24" laneChangedFrom="0" laneChangedTo="0"/>
        <edge id="23" sampledSeconds="1370.32" traveltime="131.73" overlapTraveltime="132.51" density="1.15" occupancy="0.58" waitingTime="2.00" speed="9.02" departed="6" arrived="0" entered="6" left="9" laneChangedFrom="0" laneChangedTo="0"/>
        <edge id="24" sampledSeconds="2584.61" traveltime="257.87" overlapTraveltime="258.86" density="1.30" occupancy="0.65" waitingTime="6.00" speed="7.71" departed="6" arrived="0" entered="4" left="10" laneChangedFrom="0" laneChangedTo="0"/>
        <edge id="25" sampledSeconds="2084.51" traveltime="226.24" overlapTraveltime="227.13" density="1.75" occupancy="0.88" waitingTime="0.00" speed="5.26" departed="8" arrived="0" entered="3" left="6" laneChangedFrom="0" laneChangedTo="0"/>
        <edge id="26" sampledSeconds="508.09" traveltime="226.06" overlapTraveltime="226.95" density="0.43" occupancy="0.21" waitingTime="0.00" speed="5.27" departed="2" arrived="0" entered="1" left="2" laneChangedFrom="0" laneChangedTo="0"/>
        <edge id="27" sampledSeconds="2182.13" traveltime="278.18" overlapTraveltime="278.90" density="1.22" occupancy="0.61" waitingTime="0.00" speed="6.44" departed="4" arrived="0" entered="6" left="6" laneChangedFrom="0" laneChangedTo="0"/>
        <edge id="28" sampledSeconds="4750.72" traveltime="346.05" overlapTraveltime="346.75" density="1.84" occupancy="0.92" waitingTime="0.00" speed="7.48" departed="11" arrived="0" entered="10" left="7" laneChangedFrom="0" laneChangedTo="0"/>
        <edge id="29" sampledSeconds="3036.28" traveltime="173.36" overlapTraveltime="174.13" density="1.53" occupancy="0.77" waitingTime="3.00" speed="11.41" departed="4" arrived="0" entered="14" left="16" laneChangedFrom="0" laneChangedTo="0"/>
        <edge id="3" sampledSeconds="6129.35" traveltime="221.77" overlapTraveltime="222.04" density="1.14" occupancy="0.57" waitingTime="0.00" speed="24.31" departed="3" arrived="10" entered="36" left="7" laneChangedFrom="0" laneChangedTo="0"/>
        <edge id="30" sampledSeconds="1136.15" traveltime="283.43" overlapTraveltime="284.12" density="0.49" occupancy="0.25" waitingTime="0.00" speed="8.15" departed="6" arrived="0" entered="1" left="2" laneChangedFrom="0" laneChangedTo="0"/>
        <edge id="31" sampledSeconds="1023.95" traveltime="231.05" overlapTraveltime="231.64" density="0.43" occupancy="0.21" waitingTime="0.00" speed="10.34" departed="4" arrived="0" entered="1" left="4" laneChangedFrom="0" laneChangedTo="0"/>
        <edge id="32" sampledSeconds="2377.79" traveltime="278.59" overlapTraveltime="279.35" density="1.33" occupancy="0.66" waitingTime="0.00" speed="6.43" departed="6" arrived="0" entered="3" left="8" laneChangedFrom="0" laneChangedTo="0"/>
        <edge id="33" sampledSeconds="2416.52" traveltime="114.85" overlapTraveltime="115.64" density="1.52" occupancy="0.76" waitingTime="2.00" speed="13.80" departed="4" arrived="0" entered="20" left="19" laneChangedFrom="0" laneChangedTo="0"/>
        <edge id="34" sampledSeconds="1386.19" traveltime="280.09" overlapTraveltime="280.81" density="0.54" occupancy="0.27" waitingTime="0.00" speed="9.24" departed="6" arrived="0" entered="0" left="4" laneChangedFrom="0" laneChangedTo="0"/>
        <edge id="35" sampledSeconds="2524.03" traveltime="95.08" overlapTraveltime="95.34" density="1.06" occupancy="0.53" waitingTime="0.00" speed="25.13" departed="7" arrived="0" entered="24" left="23" laneChangedFrom="0" laneChangedTo="0"/>
        <edge id="36" sampledSeconds="468.42" traveltime="116.06" overlapTraveltime="117.48" density="0.29" occupancy="0.15" waitingTime="0.00" speed="13.58" departed="4" arrived="0" entered="0" left="4" laneChangedFrom="0" laneChangedTo="0"/>
        <edge id="37" sampledSeconds="8616.26" traveltime="188.73" overlapTraveltime="188.98" density="1.60" occupancy="0.80" waitingTime="0.00" speed="28.56" departed="4" arrived="18" entered="49" left="21" laneChangedFrom="0" laneChangedTo="0"/>
        <edge id="38" sampledSeconds="4462.09" traveltime="189.89" overlapTraveltime="190.65" density="0.83" occupancy="0.41" waitingTime="7.00" speed="28.31" departed="5" arrived="0" entered="21" left="22" laneChangedFrom="0" laneChangedTo="0"/>
        <edge id="39" sampledSeconds="2807.86" traveltime="101.23" overlapTraveltime="101.92" density="1.76" occupancy="0.88" waitingTime="1.00" speed="15.67" departed="8" arrived="0" entered="21" left="27" laneChangedFrom="0" laneChangedTo="0"/>
        <edge id="4" sampledSeconds="1386.05" traveltime="80.76" overlapTraveltime="81.76" density="1.00" occupancy="0.50" waitingTime="5.00" speed="17.09" departed="13" arrived="0" entered="4" left="17" laneChangedFrom="0" laneChangedTo="0"/>
        <edge id="40" sampledSeconds="2750.14" traveltime="278.42" overlapTraveltime="279.08" density="1.06" occupancy="0.53" waitingTime="0.00" speed="9.30" departed="6" arrived="0" entered="6" left="9" laneChangedFrom="0" laneChangedTo="0"/>
        <edge id="41" sampledSeconds="3130.19" traveltime="198.16" overlapTraveltime="198.96" density="1.75" occupancy="0.87" waitingTime="4.00" speed="9.02" departed="9" arrived="0" entered="9" left="14" laneChangedFrom="0" laneChangedTo="0"/>
        <edge id="42" sampledSeconds="695.13" traveltime="130.11" overlapTraveltime="130.82" density="0.58" occupancy="0.29" waitingTime="0.00" speed="9.14" departed="7" arrived="0" entered="0" left="5" laneChangedFrom="0" laneChangedTo="0"/>
        <edge id="43" sampledSeconds="3107.65" traveltime="347.42" overlapTraveltime="348.23" density="1.20" occupancy="0.60" waitingTime="4.00" speed="7.45" departed="11" arrived="0" entered="0" left="7" laneChangedFrom="0" laneChangedTo="0"/>
        <edge id="44" sampledSeconds="1041.97" traveltime="198.49" overlapTraveltime="199.13" density="0.58" occupancy="0.29" waitingTime="0.00" speed="9.02" departed="5" arrived="0" entered="2" left="5" laneChangedFrom="0" laneChangedTo="0"/>
        <edge id="45" sampledSeconds="4053.91" traveltime="128.08" overlapTraveltime="128.46" density="2.04" occupancy="1.02" waitingTime="0.00" speed="15.53" departed="4" arrived="0" entered="32" left="28" laneChangedFrom="0" laneChangedTo="0"/>
        <edge id="46" sampledSeconds="2445.52" traveltime="71.39" overlapTraveltime="71.91" density="2.05" occupancy="1.03" waitingTime="0.00" speed="16.62" departed="5" arrived="0" entered="34" left="29" laneChangedFrom="0" laneChangedTo="0"/>
        <edge id="47" sampledSeconds="4873.28" traveltime="119.06" overlapTraveltime="119.55" density="4.09" occupancy="2.05" waitingTime="0.00" speed="10.00" departed="5" arrived="0" entered="38" left="38" laneChangedFrom="0" laneChangedTo="0"/>
        <edge id="48" sampledSeconds="1842.44" traveltime="173.87" overlapTraveltime="174.96" density="0.93" occupancy="0.46" waitingTime="3.00" speed="11.36" departed="9" arrived="0" entered="3" left="9" laneChangedFrom="0" laneChangedTo="0"/>
        <edge id="49" sampledSeconds="1670.02" traveltime="40.86" overlapTraveltime="41.22" density="1.41" occupancy="0.70" waitingTime="0.00" speed="28.94" departed="10" arrived="0" entered="31" left="40" laneChangedFrom="0" laneChangedTo="0"/>
        <edge id="5" sampledSeconds="1989.13" traveltime="58.64" overlapTraveltime="58.91" density="1.43" occupancy="0.71" waitingTime="0.00" speed="23.72" departed="6" arrived="11" entered="29" left="22" laneChangedFrom="0" laneChangedTo="0"/>
        <edge id="50" sampledSeconds="4070.98" traveltime="159.60" overlapTraveltime="160.41" density="2.05" occupancy="1.02" waitingTime="10.00" speed="12.43" departed="9" arrived="0" entered="17" left="25" laneChangedFrom="0" laneChangedTo="0"/>
        <edge id="51" sampledSeconds="617.91" traveltime="283.86" overlapTraveltime="284.61" density="0.27" occupancy="0.13" waitingTime="0.00" speed="8.14" departed="3" arrived="0" entered="0" left="2" laneChangedFrom="0" laneChangedTo="0"/>
        <edge id="52" sampledSeconds="1784.76" traveltime="40.50" overlapTraveltime="40.98" density="1.50" occupancy="0.75" waitingTime="2.00" speed="29.11" departed="10" arrived="0" entered="36" left="41" laneChangedFrom="0" laneChangedTo="0"/>
        <edge id="53" sampledSeconds="4945.43" traveltime="110.91" overlapTraveltime="111.42" density="3.55" occupancy="1.78" waitingTime="0.00" speed="12.54" departed="11" arrived="0" entered="38" left="37" laneChangedFrom="0" laneChangedTo="0"/>
        <edge id="54" sampledSeconds="1656.78" traveltime="48.63" overlapTraveltime="48.90" density="1.39" occupancy="0.69" waitingTime="0.00" speed="24.48" departed="4" arrived="17" entered="30" left="16" laneChangedFrom="0" laneChangedTo="0"/>
        <edge id="55" sampledSeconds="1413.58" traveltime="160.88" overlapTraveltime="161.61" density="0.71" occupancy="0.36" waitingTime="1.00" speed="12.34" departed="10" arrived="0" entered="0" left="8" laneChangedFrom="0" laneChangedTo="0"/>
        <edge id="56" sampledSeconds="7237.42" traveltime="215.49" overlapTraveltime="215.79" density="1.26" occupancy="0.63" waitingTime="0.00" speed="26.59" departed="9" arrived="9" entered="34" left="16" laneChangedFrom="0" laneChangedTo="0"/>
        <edge id="57" sampledSeconds="2917.65" traveltime="129.09" overlapTraveltime="129.72" density="1.47" occupancy="0.73" waitingTime="0.00" speed="15.38" departed="4" arrived="0" entered="20" left="21" laneChangedFrom="0" laneChangedTo="0"/>
        <edge id="58" sampledSeconds="3642.60" traveltime="110.50" overlapTraveltime="110.90" density="2.62" occupancy="1.31" waitingTime="0.00" speed="12.60" departed="7" arrived="0" entered="27" left="32" laneChangedFrom="0" laneChangedTo="0"/>
        <edge id="59" sampledSeconds="4980.76" traveltime="240.89" overlapTraveltime="241.36" density="1.79" occupancy="0.90" waitingTime="0.00" speed="11.52" departed="5" arrived="11" entered="23" left="3" laneChangedFrom="0" laneChangedTo="0"/>
        <edge id="6" sampledSeconds="1821.34" traveltime="94.65" overlapTraveltime="94.98" density="1.15" occupancy="0.57" waitingTime="0.00" speed="16.80" departed="7" arrived="0" entered="14" left="19" laneChangedFrom="0" laneChangedTo="0"/>
        <edge id="60" sampledSeconds="3818.48" traveltime="216.10" overlapTraveltime="216.47" density="0.67" occupancy="0.33" waitingTime="0.00" speed="26.51" departed="6" arrived="0" entered="14" left="16" laneChangedFrom="0" laneChangedTo="0"/>
        <edge id="61" sampledSeconds="1427.82" traveltime="242.34" overlapTraveltime="243.15" density="0.51" occupancy="0.26" waitingTime="1.00" speed="11.44" departed="4" arrived="0" entered="2" left="5" laneChangedFrom="0" laneChangedTo="0"/>
        <edge id="62" sampledSeconds="4062.37" traveltime="223.13" overlapTraveltime="224.07" density="2.05" occupancy="1.02" waitingTime="16.00" speed="8.88" departed="5" arrived="0" entered="15" left="17" laneChangedFrom="0" laneChangedTo="0"/>
        <edge id="63" sampledSeconds="1838.40" traveltime="217.90" overlapTraveltime="218.58" density="0.72" occupancy="0.36" waitingTime="0.00" speed="11.65" departed="5" arrived="0" entered="4" left="8" laneChangedFrom="0" laneChangedTo="0"/>
        <edge id="64" sampledSeconds="4973.09" traveltime="221.32" overlapTraveltime="221.90" density="2.51" occupancy="1.25" waitingTime="0.00" speed="8.97" departed="4" arrived="8" entered="23" left="8" laneChangedFrom="0" laneChangedTo="0"/>
        <edge id="65" sampledSeconds="3188.42" traveltime="126.77" overlapTraveltime="127.23" density="2.01" occupancy="1.00" waitingTime="0.00" speed="12.51" departed="11" arrived="0" entered="15" left="23" laneChangedFrom="0" laneChangedTo="0"/>
        <edge id="66" sampledSeconds="4394.69" traveltime="127.40" overlapTraveltime="127.78" density="2.45" occupancy="1.23" waitingTime="0.00" speed="14.05" departed="7" arrived="0" entered="30" left="30" laneChangedFrom="0" laneChangedTo="0"/>
        <edge id="67" sampledSeconds="1985.84" traveltime="71.18" overlapTraveltime="71.57" density="1.67" occupancy="0.83" waitingTime="0.00" speed="16.70" departed="8" arrived="0" entered="21" left="26" laneChangedFrom="0" laneChangedTo="0"/>
        <edge id="68" sampledSeconds="6724.66" traveltime="254.72" overlapTraveltime="255.34" density="2.65" occupancy="1.32" waitingTime="2.00" speed="9.98" departed="6" arrived="10" entered="26" left="8" laneChangedFrom="0" laneChangedTo="0"/>
        <edge id="69" sampledSeconds="1877.84" traveltime="60.32" overlapTraveltime="60.68" density="1.18" occupancy="0.59" waitingTime="0.00" speed="26.24" departed="8" arrived="0" entered="25" left="30" laneChangedFrom="0" laneChangedTo="0"/>
        <edge id="7" sampledSeconds="3189.05" traveltime="94.92" overlapTraveltime="95.13" density="1.33" occupancy="0.67" waitingTime="0.00" speed="25.18" departed="5" arrived="0" entered="29" left="32" laneChangedFrom="0" laneChangedTo="0"/>
        <edge id="70" sampledSeconds="949.01" traveltime="174.45" overlapTraveltime="175.20" density="0.53" occupancy="0.27" waitingTime="0.00" speed="10.25" departed="6" arrived="0" entered="0" left="5" laneChangedFrom="0" laneChangedTo="0"/>
        <edge id="71" sampledSeconds="815.55" traveltime="129.76" overlapTraveltime="130.40" density="0.69" occupancy="0.34" waitingTime="0.00" speed="9.17" departed="7" arrived="0" entered="0" left="6" laneChangedFrom="0" laneChangedTo="0"/>
        <edge id="72" sampledSeconds="2618.51" traveltime="172.55" overlapTraveltime="173.21" density="1.46" occupancy="0.73" waitingTime="0.00" speed="10.37" departed="6" arrived="0" entered="12" left="12" laneChangedFrom="0" laneChangedTo="0"/>
        <edge id="73" sampledSeconds="1658.95" traveltime="155.16" overlapTraveltime="155.96" density="1.04" occupancy="0.52" waitingTime="5.00" speed="10.23" departed="7" arrived="0" entered="6" left="9" laneChangedFrom="0" laneChangedTo="0"/>
        <edge id="74" sampledSeconds="4500.47" traveltime="100.45" overlapTraveltime="100.78" density="2.83" occupancy="1.41" waitingTime="0.00" speed="15.85" departed="5" arrived="18" entered="48" left="21" laneChangedFrom="0" laneChangedTo="0"/>
        <edge id="75" sampledSeconds="2999.75" traveltime="129.36" overlapTraveltime="130.15" density="1.68" occupancy="0.84" waitingTime="9.00" speed="13.80" departed="8" arrived="0" entered="17" left="21" laneChangedFrom="0" laneChangedTo="0"/>
        <edge id="76" sampledSeconds="1273.85" traveltime="155.09" overlapTraveltime="155.71" density="0.80" occupancy="0.40" waitingTime="0.00" speed="10.25" departed="8" arrived="0" entered="1" left="8" laneChangedFrom="0" laneChangedTo="0"/>
        <edge id="8" sampledSeconds="3678.69" traveltime="95.44" overlapTraveltime="96.10" density="2.31" occupancy="1.16" waitingTime="2.00" speed="16.60" departed="10" arrived="0" entered="29" left="37" laneChangedFrom="0" laneChangedTo="0"/>
        <edge id="9" sampledSeconds="2164.75" traveltime="84.98" overlapTraveltime="85.60" density="1.21" occupancy="0.60" waitingTime="4.00" speed="20.98" departed="6" arrived="0" entered="20" left="24" laneChangedFrom="0" laneChangedTo="0"/>
    </interval>
    <interval begin="1000.00" end="2000.00" id="2">
        <edge id="1" sampledSeconds="13392.25" traveltime="222.18" overlapTraveltime="222.43" density="2.48" occupancy="1.24" waitingTime="0.00" speed="24.27" departed="8" arrived="40" entered="56" left="17" laneChangedFrom="0" laneChangedTo="0"/>
        <edge id="10" sampledSeconds="2564.13" traveltime="231.91" overlapTraveltime="232.69" density="1.07" occupancy="0.54" waitingTime="1.00" speed="10.29" departed="11" arrived="0" entered="0" left="12" laneChangedFrom="0" laneChangedTo="0"/>
        <edge id="11" sampledSeconds="3949.35" traveltime="85.45" overlapTraveltime="85.88" density="2.21" occupancy="1.10" waitingTime="2.00" speed="20.91" departed="12" arrived="0" entered="36" left="42" laneChangedFrom="0" laneChangedTo="0"/>
        <edge id="12" sampledSeconds="6207.16" traveltime="126.19" overlapTraveltime="126.93" density="3.12" occupancy="1.56" waitingTime="4.00" speed="15.72" departed="4" arrived="0" entered="46" left="47" laneChangedFrom="0" laneChangedTo="0"/>
        <edge id="13" sampledSeconds="692.53" traveltime="133.14" overlapTraveltime="133.81" density="0.58" occupancy="0.29" waitingTime="0.00" speed="8.93" departed="6" arrived="0" entered="0" left="4" laneChangedFrom="0" laneChangedTo="0"/>
        <edge id="14" sampledSeconds="6861.44" traveltime="78.02" overlapTraveltime="78.32" density="4.93" occupancy="2.46" waitingTime="0.00" speed="17.84" departed="8" arrived="32" entered="80" left="53" laneChangedFrom="0" laneChangedTo="0"/>
        <edge id="15" sampledSeconds="3931.04" traveltime="125.99" overlapTraveltime="126.37" density="1.97" occupancy="0.99" waitingTime="0.00" speed="15.79" departed="7" arrived="0" entered="23" left="32" laneChangedFrom="0" laneChangedTo="0"/>
        <edge id="16" sampledSeconds="3181.84" traveltime="63.67" overlapTraveltime="64.35" density="2.67" occupancy="1.34" waitingTime="0.00" speed="18.58" departed="3" arrived="0" entered="46" left="50" laneChangedFrom="0" laneChangedTo="0"/>
        <edge id="17" sampledSeconds="3789.38" traveltime="130.31" overlapTraveltime="131.11" density="1.90" occupancy="0.95" waitingTime="11.00" speed="15.23" departed="8" arrived="0" entered="20" left="30" laneChangedFrom="0" laneChangedTo="0"/>
        <edge id="18" sampledSeconds="1907.10" traveltime="49.22" overlapTraveltime="49.72" density="1.60" occupancy="0.80" waitingTime="1.00" speed="24.07" departed="8" arrived="0" entered="32" left="37" laneChangedFrom="0" laneChangedTo="0"/>
        <edge id="19" sampledSeconds="5133.22" traveltime="63.13" overlapTraveltime="63.55" density="4.31" occupancy="2.16" waitingTime="0.00" speed="18.81" departed="3" arrived="0" entered="77" left="81" laneChangedFrom="0" laneChangedTo="0"/>
        <edge id="2" sampledSeconds="669.87" traveltime="59.48" overlapTraveltime="60.98" density="0.48" occupancy="0.24" waitingTime="10.00" speed="22.91" departed="4" arrived="0" entered="7" left="11" laneChangedFrom="0" laneChangedTo="0"/>
        <edge id="20" sampledSeconds="9329.93" traveltime="128.62" overlapTraveltime="128.99" density="4.68" occupancy="2.34" waitingTime="2.00" speed="15.48" departed="12" arrived="40" entered="58" left="35" laneChangedFrom="0" laneChangedTo="0"/>
        <edge id="21" sampledSeconds="1914.08" traveltime="257.67" overlapTraveltime="258.40" density="0.96" occupancy="0.48" waitingTime="0.00" speed="7.72" departed="7" arrived="0" entered="0" left="7" laneChangedFrom="0" laneChangedTo="0"/>
        <edge id="22" sampledSeconds="4957.35" traveltime="119.57" overlapTraveltime="120.10" density="4.16" occupancy="2.08" waitingTime="0.00" speed="9.95" departed="14" arrived="0" entered="28" left="42" laneChangedFrom="0" laneChangedTo="0"/>
        <edge id="23" sampledSeconds="1656.13" traveltime="132.34" overlapTraveltime="133.22" density="1.39" occupancy="0.70" waitingTime="5.00" speed="8.97" departed="3" arrived="0" entered="9" left="13" laneChangedFrom="0" laneChangedTo="0"/>
        <edge id="24" sampledSeconds="3867.38" traveltime="258.78" overlapTraveltime="259.67" density="1.94" occupancy="0.97" waitingTime="22.00" speed="7.68" departed="11" arrived="0" entered="5" left="13" laneChangedFrom="0" laneChangedTo="0"/>
        <edge id="25" sampledSeconds="2874.13" traveltime="227.55" overlapTraveltime="228.52" density="2.41" occupancy="1.21" waitingTime="15.00" speed="5.23" departed="7" arrived="0" entered="5" left="14" laneChangedFrom="0" laneChangedTo="0"/>
        <edge id="26" sampledSeconds="1787.29" traveltime="226.63" overlapTraveltime="227.48" density="1.50" occupancy="0.75" waitingTime="0.00" speed="5.26" departed="8" arrived="0" entered="0" left="8" laneChangedFrom="0" laneChangedTo="0"/>
        <edge id="27" sampledSeconds="3707.72" traveltime="277.36" overlapTraveltime="278.07" density="2.07" occupancy="1.04" waitingTime="0.00" speed="6.46" departed="4" arrived="0" entered="11" left="13" laneChangedFrom="0" laneChangedTo="0"/>
        <edge id="28" sampledSeconds="8021.70" traveltime="345.47" overlapTraveltime="346.17" density="3.10" occupancy="1.55" waitingTime="0.00" speed="7.49" departed="6" arrived="0" entered="14" left="28" laneChangedFrom="0" laneChangedTo="0"/>
        <edge id="29" sampledSeconds="5515.43" traveltime="175.44" overlapTraveltime="176.43" density="2.78" occupancy="1.39" waitingTime="48.00" speed="11.26" departed="10" arrived="0" entered="25" left="29" laneChangedFrom="0" laneChangedTo="0"/>
        <edge id="3" sampledSeconds="13658.64" traveltime="221.74" overlapTraveltime="222.46" density="2.53" occupancy="1.27" waitingTime="6.00" speed="24.27" departed="6" arrived="38" entered="51" left="28" laneChangedFrom="0" laneChangedTo="0"/>
        <edge id="30" sampledSeconds="2984.07" traveltime="283.54" overlapTraveltime="284.47" density="1.29" occupancy="0.65" waitingTime="7.00" speed="8.14" departed="9" arrived="0" entered="0" left="12" laneChangedFrom="0" laneChangedTo="0"/>
        <edge id="31" sampledSeconds="3240.74" traveltime="231.04" overlapTraveltime="231.75" density="1.36" occupancy="0.68" waitingTime="0.00" speed="10.34" departed="9" arrived="0" entered="6" left="13" laneChangedFrom="0" laneChangedTo="0"/>
        <edge id="32" sampledSeconds="2870.68" traveltime="278.25" overlapTraveltime="278.97" density="1.60" occupancy="0.80" waitingTime="0.00" speed="6.44" departed="8" arrived="0" entered="4" left="10" laneChangedFrom="0" laneChangedTo="0"/>
        <edge id="33" sampledSeconds="3641.12" traveltime="114.55" overlapTraveltime="115.29" density="2.29" occupancy="1.14" waitingTime="9.00" speed="13.84" departed="3" arrived="0" entered="28" left="31" laneChangedFrom="0" laneChangedTo="0"/>
        <edge id="34" sampledSeconds="2059.05" traveltime="278.83" overlapTraveltime="279.46" density="0.79" occupancy="0.40" waitingTime="0.00" speed="9.29" departed="4" arrived="0" entered="5" left="7" laneChangedFrom="0" laneChangedTo="0"/>
        <edge id="35" sampledSeconds="4459.33" traveltime="93.42" overlapTraveltime="93.65" density="1.87" occupancy="0.93" waitingTime="0.00" speed="25.58" departed="5" arrived="0" entered="40" left="49" laneChangedFrom="0" laneChangedTo="0"/>
        <edge id="36" sampledSeconds="1229.86" traveltime="115.78" overlapTraveltime="116.37" density="0.77" occupancy="0.39" waitingTime="0.00" speed="13.71" departed="9" arrived="0" entered="3" left="8" laneChangedFrom="0" laneChangedTo="0"/>
        <edge id="37" sampledSeconds="13141.52" traveltime="188.80" overlapTraveltime="189.01" density="2.44" occupancy="1.22" waitingTime="0.00" speed="28.55" departed="5" arrived="46" entered="63" left="25" laneChangedFrom="0" laneChangedTo="0"/>
        <edge id="38" sampledSeconds="9177.46" traveltime="188.90" overlapTraveltime="189.41" density="1.70" occupancy="0.85" waitingTime="3.00" speed="28.49" departed="3" arrived="0" entered="46" left="47" laneChangedFrom="0" laneChangedTo="0"/>
        <edge id="39" sampledSeconds="3364.78" traveltime="100.43" overlapTraveltime="101.12" density="2.11" occupancy="1.06" waitingTime="3.00" speed="15.79" departed="5" arrived="0" entered="28" left="33" laneChangedFrom="0" laneChangedTo="0"/>
        <edge id="4" sampledSeconds="1745.35" traveltime="78.51" overlapTraveltime="78.84" density="1.25" occupancy="0.63" waitingTime="0.00" speed="17.72" departed="5" arrived="0" entered="18" left="21" laneChangedFrom="0" laneChangedTo="0"/>
        <edge id="40" sampledSeconds="2760.45" traveltime="278.64" overlapTraveltime="279.36" density="1.07" occupancy="0.53" waitingTime="0.00" speed="9.29" departed="5" arrived="0" entered="6" left="10" laneChangedFrom="0" laneChangedTo="0"/>
        <edge id="41" sampledSeconds="4806.10" traveltime="197.80" overlapTraveltime="198.64" density="2.68" occupancy="1.34" waitingTime="3.00" speed="9.04" departed="10" arrived="0" entered="13" left="23" laneChangedFrom="0" laneChangedTo="0"/>
        <edge id="42" sampledSeconds="1640.54" traveltime="129.37" overlapTraveltime="130.02" density="1.38" occupancy="0.69" waitingTime="0.00" speed="9.19" departed="9" arrived="0" entered="2" left="13" laneChangedFrom="0" laneChangedTo="0"/>
        <edge id="43" sampledSeconds="2715.63" traveltime="347.91" overlapTraveltime="348.80" density="1.05" occupancy="0.52" waitingTime="8.00" speed="7.43" departed="8" arrived="0" entered="0" left="8" laneChangedFrom="0" laneChangedTo="0"/>
        <edge id="44" sampledSeconds="1465.85" traveltime="198.20" overlapTraveltime="198.84" density="0.82" occupancy="0.41" waitingTime="0.00" speed="9.03" departed="6" arrived="0" entered="0" left="7" laneChangedFrom="0" laneChangedTo="0"/>
        <edge id="45" sampledSeconds="7031.59" traveltime="127.94" overlapTraveltime="128.34" density="3.53" occupancy="1.77" waitingTime="0.00" speed="15.55" departed="3" arrived="0" entered="52" left="55" laneChangedFrom="0" laneChangedTo="0"/>