<?xml version="1.0" encoding="UTF-8"?>

<!-- generated on 02/12/18 15:49:21 by SUMO Version 0.30.0
<?xml version="1.0" encoding="UTF-8"?>

<configuration xmlns:xsi="http://www.w3.org/2001/XMLSchema-instance" xsi:noNamespaceSchemaLocation="http://sumo.dlr.de/xsd/sumoConfiguration.xsd">

    <input>
        <net-file value="C:/Users/Shekar/Desktop/laptop/sumo_sim/sioux_falls/config/../network/sf_net.net.xml"/>
        <route-files value="C:/Users/Shekar/Desktop/laptop/sumo_sim/sioux_falls/config/../trips/trip.xml"/>
        <additional-files value="C:/Users/Shekar/Desktop/laptop/sumo_sim/sioux_falls/config/additional_46__0_1000.xml"/>
    </input>

    <output>
        <summary-output value="C:/Users/Shekar/Desktop/laptop/sumo_sim/sioux_falls/config/../output/summary_46__0_1000.xml"/>
    </output>

    <processing>
        <time-to-teleport value="300"/>
    </processing>

    <report>
        <log value="C:/Users/Shekar/Desktop/laptop/sumo_sim/sioux_falls/config/../output/report_46__0_1000.xml"/>
    </report>

</configuration>
-->

<meandata xmlns:xsi="http://www.w3.org/2001/XMLSchema-instance" xsi:noNamespaceSchemaLocation="http://sumo.dlr.de/xsd/meandata_file.xsd">
    <interval begin="0.00" end="1000.00" id="1">
        <edge id="1" sampledSeconds="5439.83" traveltime="222.56" overlapTraveltime="222.90" density="1.01" occupancy="0.50" waitingTime="2.00" speed="24.22" departed="6" arrived="10" entered="24" left="8" laneChangedFrom="0" laneChangedTo="0"/>
        <edge id="10" sampledSeconds="1644.57" traveltime="231.28" overlapTraveltime="231.95" density="0.69" occupancy="0.34" waitingTime="0.00" speed="10.33" departed="8" arrived="0" entered="0" left="5" laneChangedFrom="0" laneChangedTo="0"/>
        <edge id="11" sampledSeconds="2146.17" traveltime="84.86" overlapTraveltime="85.19" density="1.20" occupancy="0.60" waitingTime="0.00" speed="21.08" departed="4" arrived="0" entered="22" left="25" laneChangedFrom="0" laneChangedTo="0"/>
        <edge id="12" sampledSeconds="4562.24" traveltime="126.55" overlapTraveltime="127.23" density="2.29" occupancy="1.15" waitingTime="2.00" speed="15.68" departed="5" arrived="0" entered="32" left="35" laneChangedFrom="0" laneChangedTo="0"/>
        <edge id="13" sampledSeconds="1064.18" traveltime="132.92" overlapTraveltime="133.59" density="0.89" occupancy="0.45" waitingTime="0.00" speed="8.95" departed="8" arrived="0" entered="0" left="8" laneChangedFrom="0" laneChangedTo="0"/>
        <edge id="14" sampledSeconds="4401.52" traveltime="78.05" overlapTraveltime="78.33" density="3.16" occupancy="1.58" waitingTime="0.00" speed="17.84" departed="5" arrived="18" entered="57" left="33" laneChangedFrom="0" laneChangedTo="0"/>
        <edge id="15" sampledSeconds="2772.98" traveltime="126.60" overlapTraveltime="127.01" density="1.39" occupancy="0.70" waitingTime="0.00" speed="15.71" departed="10" arrived="0" entered="14" left="20" laneChangedFrom="0" laneChangedTo="0"/>
        <edge id="16" sampledSeconds="2559.56" traveltime="63.73" overlapTraveltime="64.42" density="2.15" occupancy="1.07" waitingTime="0.00" speed="18.56" departed="5" arrived="0" entered="36" left="38" laneChangedFrom="0" laneChangedTo="0"/>
        <edge id="17" sampledSeconds="3328.83" traveltime="130.26" overlapTraveltime="130.94" density="1.67" occupancy="0.84" waitingTime="1.00" speed="15.25" departed="11" arrived="0" entered="17" left="24" laneChangedFrom="0" laneChangedTo="0"/>
        <edge id="18" sampledSeconds="1087.41" traveltime="48.59" overlapTraveltime="49.47" density="0.91" occupancy="0.46" waitingTime="8.00" speed="24.20" departed="4" arrived="0" entered="18" left="22" laneChangedFrom="0" laneChangedTo="0"/>
        <edge id="19" sampledSeconds="3721.55" traveltime="63.59" overlapTraveltime="63.98" density="3.13" occupancy="1.56" waitingTime="0.00" speed="18.69" departed="10" arrived="0" entered="51" left="55" laneChangedFrom="0" laneChangedTo="0"/>
        <edge id="2" sampledSeconds="789.75" traveltime="60.45" overlapTraveltime="60.87" density="0.57" occupancy="0.28" waitingTime="0.00" speed="22.95" departed="7" arrived="0" entered="6" left="13" laneChangedFrom="0" laneChangedTo="0"/>
        <edge id="20" sampledSeconds="4864.05" traveltime="129.14" overlapTraveltime="129.49" density="2.44" occupancy="1.22" waitingTime="0.00" speed="15.42" departed="9" arrived="15" entered="32" left="19" laneChangedFrom="0" laneChangedTo="0"/>
        <edge id="21" sampledSeconds="907.87" traveltime="257.38" overlapTraveltime="258.04" density="0.46" occupancy="0.23" waitingTime="0.00" speed="7.73" departed="4" arrived="0" entered="0" left="3" laneChangedFrom="0" laneChangedTo="0"/>
        <edge id="22" sampledSeconds="3392.86" traveltime="119.09" overlapTraveltime="119.59" density="2.85" occupancy="1.42" waitingTime="0.00" speed="10.00" departed="5" arrived="0" entered="26" left="26" laneChangedFrom="0" laneChangedTo="0"/>
        <edge id="23" sampledSeconds="1371.45" traveltime="131.86" overlapTraveltime="132.62" density="1.15" occupancy="0.58" waitingTime="2.00" speed="9.01" departed="6" arrived="0" entered="6" left="9" laneChangedFrom="0" laneChangedTo="0"/>
        <edge id="24" sampledSeconds="2838.96" traveltime="257.49" overlapTraveltime="258.45" density="1.43" occupancy="0.71" waitingTime="1.00" speed="7.72" departed="6" arrived="0" entered="5" left="11" laneChangedFrom="0" laneChangedTo="0"/>
        <edge id="25" sampledSeconds="1860.05" traveltime="226.78" overlapTraveltime="227.66" density="1.56" occupancy="0.78" waitingTime="0.00" speed="5.25" departed="8" arrived="0" entered="2" left="5" laneChangedFrom="0" laneChangedTo="0"/>
        <edge id="26" sampledSeconds="452.22" traveltime="226.14" overlapTraveltime="227.08" density="0.38" occupancy="0.19" waitingTime="0.00" speed="5.26" departed="2" arrived="0" entered="0" left="2" laneChangedFrom="0" laneChangedTo="0"/>
        <edge id="27" sampledSeconds="2234.35" traveltime="277.18" overlapTraveltime="277.89" density="1.25" occupancy="0.62" waitingTime="0.00" speed="6.46" departed="4" arrived="0" entered="7" left="6" laneChangedFrom="0" laneChangedTo="0"/>
        <edge id="28" sampledSeconds="4757.00" traveltime="346.29" overlapTraveltime="346.98" density="1.84" occupancy="0.92" waitingTime="0.00" speed="7.47" departed="11" arrived="0" entered="10" left="7" laneChangedFrom="0" laneChangedTo="0"/>
        <edge id="29" sampledSeconds="2871.15" traveltime="173.85" overlapTraveltime="174.66" density="1.45" occupancy="0.72" waitingTime="5.00" speed="11.38" departed="4" arrived="0" entered="13" left="15" laneChangedFrom="0" laneChangedTo="0"/>
        <edge id="3" sampledSeconds="6361.55" traveltime="221.63" overlapTraveltime="221.91" density="1.18" occupancy="0.59" waitingTime="0.00" speed="24.33" departed="3" arrived="10" entered="37" left="8" laneChangedFrom="0" laneChangedTo="0"/>
        <edge id="30" sampledSeconds="1136.77" traveltime="283.32" overlapTraveltime="284.01" density="0.49" occupancy="0.25" waitingTime="0.00" speed="8.16" departed="6" arrived="0" entered="1" left="2" laneChangedFrom="0" laneChangedTo="0"/>
        <edge id="31" sampledSeconds="1034.89" traveltime="232.91" overlapTraveltime="233.79" density="0.43" occupancy="0.22" waitingTime="7.00" speed="10.25" departed="4" arrived="0" entered="1" left="4" laneChangedFrom="0" laneChangedTo="0"/>
        <edge id="32" sampledSeconds="2373.05" traveltime="277.98" overlapTraveltime="278.68" density="1.33" occupancy="0.66" waitingTime="0.00" speed="6.44" departed="6" arrived="0" entered="3" left="8" laneChangedFrom="0" laneChangedTo="0"/>
        <edge id="33" sampledSeconds="2408.00" traveltime="114.83" overlapTraveltime="115.56" density="1.51" occupancy="0.76" waitingTime="1.00" speed="13.81" departed="4" arrived="0" entered="20" left="19" laneChangedFrom="0" laneChangedTo="0"/>
        <edge id="34" sampledSeconds="1383.87" traveltime="279.43" overlapTraveltime="280.06" density="0.53" occupancy="0.27" waitingTime="0.00" speed="9.27" departed="6" arrived="0" entered="0" left="4" laneChangedFrom="0" laneChangedTo="0"/>
        <edge id="35" sampledSeconds="2525.35" traveltime="94.83" overlapTraveltime="95.10" density="1.06" occupancy="0.53" waitingTime="0.00" speed="25.19" departed="7" arrived="0" entered="24" left="23" laneChangedFrom="0" laneChangedTo="0"/>
        <edge id="36" sampledSeconds="551.41" traveltime="115.50" overlapTraveltime="118.52" density="0.35" occupancy="0.17" waitingTime="8.00" speed="13.46" departed="4" arrived="0" entered="1" left="4" laneChangedFrom="0" laneChangedTo="0"/>
        <edge id="37" sampledSeconds="8355.76" traveltime="188.70" overlapTraveltime="188.95" density="1.55" occupancy="0.77" waitingTime="0.00" speed="28.56" departed="4" arrived="18" entered="47" left="20" laneChangedFrom="0" laneChangedTo="0"/>
        <edge id="38" sampledSeconds="4459.90" traveltime="190.00" overlapTraveltime="190.38" density="0.83" occupancy="0.41" waitingTime="0.00" speed="28.35" departed="5" arrived="0" entered="21" left="22" laneChangedFrom="0" laneChangedTo="0"/>
        <edge id="39" sampledSeconds="2718.71" traveltime="101.23" overlapTraveltime="102.10" density="1.71" occupancy="0.85" waitingTime="3.00" speed="15.64" departed="8" arrived="0" entered="20" left="26" laneChangedFrom="0" laneChangedTo="0"/>
        <edge id="4" sampledSeconds="1381.37" traveltime="80.80" overlapTraveltime="81.48" density="0.99" occupancy="0.50" waitingTime="1.00" speed="17.14" departed="13" arrived="0" entered="4" left="17" laneChangedFrom="0" laneChangedTo="0"/>
        <edge id="40" sampledSeconds="3080.97" traveltime="278.97" overlapTraveltime="279.71" density="1.19" occupancy="0.59" waitingTime="0.00" speed="9.28" departed="6" arrived="0" entered="10" left="9" laneChangedFrom="0" laneChangedTo="0"/>
        <edge id="41" sampledSeconds="3321.08" traveltime="197.76" overlapTraveltime="198.49" density="1.85" occupancy="0.93" waitingTime="2.00" speed="9.05" departed="9" arrived="0" entered="10" left="15" laneChangedFrom="0" laneChangedTo="0"/>
        <edge id="42" sampledSeconds="2655.49" traveltime="128.54" overlapTraveltime="129.21" density="2.23" occupancy="1.12" waitingTime="0.00" speed="9.25" departed="7" arrived="0" entered="17" left="16" laneChangedFrom="0" laneChangedTo="0"/>
        <edge id="43" sampledSeconds="3114.20" traveltime="347.62" overlapTraveltime="348.50" density="1.20" occupancy="0.60" waitingTime="0.00" speed="7.44" departed="11" arrived="0" entered="0" left="7" laneChangedFrom="0" laneChangedTo="0"/>
        <edge id="44" sampledSeconds="5902.99" traveltime="197.13" overlapTraveltime="197.80" density="3.30" occupancy="1.65" waitingTime="0.00" speed="9.08" departed="5" arrived="0" entered="36" left="26" laneChangedFrom="0" laneChangedTo="0"/>
        <edge id="45" sampledSeconds="4059.32" traveltime="128.13" overlapTraveltime="128.54" density="2.04" occupancy="1.02" waitingTime="0.00" speed="15.52" departed="4" arrived="0" entered="32" left="28" laneChangedFrom="0" laneChangedTo="0"/>
        <edge id="46" sampledSeconds="369.37" traveltime="73.75" overlapTraveltime="74.19" density="0.31" occupancy="0.16" waitingTime="0.00" speed="16.11" departed="5" arrived="0" entered="0" left="5" laneChangedFrom="0" laneChangedTo="0"/>
        <edge id="47" sampledSeconds="4752.37" traveltime="119.14" overlapTraveltime="119.63" density="3.99" occupancy="2.00" waitingTime="0.00" speed="9.99" departed="5" arrived="0" entered="37" left="36" laneChangedFrom="0" laneChangedTo="0"/>
        <edge id="48" sampledSeconds="1835.84" traveltime="173.69" overlapTraveltime="174.76" density="0.93" occupancy="0.46" waitingTime="3.00" speed="11.37" departed="9" arrived="0" entered="3" left="9" laneChangedFrom="0" laneChangedTo="0"/>
        <edge id="49" sampledSeconds="1751.66" traveltime="40.88" overlapTraveltime="41.26" density="1.47" occupancy="0.74" waitingTime="0.00" speed="28.91" departed="10" arrived="0" entered="33" left="42" laneChangedFrom="0" laneChangedTo="0"/>
        <edge id="5" sampledSeconds="1980.08" traveltime="58.40" overlapTraveltime="58.65" density="1.42" occupancy="0.71" waitingTime="0.00" speed="23.82" departed="6" arrived="11" entered="29" left="22" laneChangedFrom="0" laneChangedTo="0"/>
        <edge id="50" sampledSeconds="4226.49" traveltime="159.48" overlapTraveltime="160.23" density="2.12" occupancy="1.06" waitingTime="11.00" speed="12.45" departed="9" arrived="0" entered="18" left="26" laneChangedFrom="0" laneChangedTo="0"/>
        <edge id="51" sampledSeconds="615.95" traveltime="283.23" overlapTraveltime="283.95" density="0.27" occupancy="0.13" waitingTime="0.00" speed="8.16" departed="3" arrived="0" entered="0" left="2" laneChangedFrom="0" laneChangedTo="0"/>
        <edge id="52" sampledSeconds="1794.87" traveltime="40.53" overlapTraveltime="41.00" density="1.51" occupancy="0.76" waitingTime="0.00" speed="29.10" departed="10" arrived="0" entered="35" left="41" laneChangedFrom="0" laneChangedTo="0"/>
        <edge id="53" sampledSeconds="5183.66" traveltime="110.99" overlapTraveltime="111.51" density="3.72" occupancy="1.86" waitingTime="0.00" speed="12.53" departed="11" arrived="0" entered="40" left="40" laneChangedFrom="0" laneChangedTo="0"/>
        <edge id="54" sampledSeconds="1658.06" traveltime="48.69" overlapTraveltime="48.96" density="1.39" occupancy="0.70" waitingTime="0.00" speed="24.45" departed="4" arrived="17" entered="30" left="16" laneChangedFrom="0" laneChangedTo="0"/>
        <edge id="55" sampledSeconds="1587.62" traveltime="162.03" overlapTraveltime="163.03" density="0.80" occupancy="0.40" waitingTime="9.00" speed="12.23" departed="10" arrived="0" entered="1" left="9" laneChangedFrom="0" laneChangedTo="0"/>
        <edge id="56" sampledSeconds="7023.32" traveltime="215.46" overlapTraveltime="215.77" density="1.23" occupancy="0.61" waitingTime="0.00" speed="26.59" departed="9" arrived="10" entered="33" left="15" laneChangedFrom="0" laneChangedTo="0"/>
        <edge id="57" sampledSeconds="3052.67" traveltime="129.29" overlapTraveltime="129.99" density="1.53" occupancy="0.77" waitingTime="0.00" speed="15.35" departed="4" arrived="0" entered="22" left="22" laneChangedFrom="0" laneChangedTo="0"/>
        <edge id="58" sampledSeconds="3642.09" traveltime="110.46" overlapTraveltime="110.86" density="2.62" occupancy="1.31" waitingTime="0.00" speed="12.60" departed="7" arrived="0" entered="27" left="32" laneChangedFrom="0" laneChangedTo="0"/>
        <edge id="59" sampledSeconds="5116.96" traveltime="240.65" overlapTraveltime="241.11" density="1.84" occupancy="0.92" waitingTime="0.00" speed="11.53" departed="5" arrived="11" entered="23" left="3" laneChangedFrom="0" laneChangedTo="0"/>
        <edge id="6" sampledSeconds="1820.24" traveltime="94.72" overlapTraveltime="95.03" density="1.14" occupancy="0.57" waitingTime="0.00" speed="16.79" departed="7" arrived="0" entered="14" left="19" laneChangedFrom="0" laneChangedTo="0"/>
        <edge id="60" sampledSeconds="3818.60" traveltime="216.10" overlapTraveltime="216.74" density="0.67" occupancy="0.33" waitingTime="1.00" speed="26.47" departed="6" arrived="0" entered="14" left="16" laneChangedFrom="0" laneChangedTo="0"/>
        <edge id="61" sampledSeconds="1185.62" traveltime="242.69" overlapTraveltime="243.37" density="0.43" occupancy="0.21" waitingTime="0.00" speed="11.43" departed="4" arrived="0" entered="1" left="4" laneChangedFrom="0" laneChangedTo="0"/>
        <edge id="62" sampledSeconds="4045.98" traveltime="222.25" overlapTraveltime="223.05" density="2.04" occupancy="1.02" waitingTime="4.00" speed="8.92" departed="5" arrived="0" entered="15" left="17" laneChangedFrom="0" laneChangedTo="0"/>
        <edge id="63" sampledSeconds="1835.52" traveltime="217.76" overlapTraveltime="218.46" density="0.72" occupancy="0.36" waitingTime="0.00" speed="11.66" departed="5" arrived="0" entered="4" left="8" laneChangedFrom="0" laneChangedTo="0"/>
        <edge id="64" sampledSeconds="4126.07" traveltime="221.37" overlapTraveltime="221.92" density="2.08" occupancy="1.04" waitingTime="0.00" speed="8.96" departed="4" arrived="6" entered="18" left="8" laneChangedFrom="0" laneChangedTo="0"/>
        <edge id="65" sampledSeconds="3085.30" traveltime="126.73" overlapTraveltime="127.19" density="1.94" occupancy="0.97" waitingTime="0.00" speed="12.52" departed="11" arrived="0" entered="14" left="23" laneChangedFrom="0" laneChangedTo="0"/>
        <edge id="66" sampledSeconds="3421.85" traveltime="127.59" overlapTraveltime="127.99" density="1.91" occupancy="0.96" waitingTime="0.00" speed="14.03" departed="7" arrived="0" entered="22" left="23" laneChangedFrom="0" laneChangedTo="0"/>
        <edge id="67" sampledSeconds="1919.41" traveltime="71.12" overlapTraveltime="71.52" density="1.61" occupancy="0.81" waitingTime="0.00" speed="16.72" departed="8" arrived="0" entered="20" left="25" laneChangedFrom="0" laneChangedTo="0"/>
        <edge id="68" sampledSeconds="4754.08" traveltime="254.63" overlapTraveltime="255.25" density="1.87" occupancy="0.94" waitingTime="0.00" speed="9.98" departed="6" arrived="5" entered="18" left="8" laneChangedFrom="0" laneChangedTo="0"/>
        <edge id="69" sampledSeconds="1124.22" traveltime="62.08" overlapTraveltime="62.44" density="0.71" occupancy="0.35" waitingTime="0.00" speed="25.50" departed="8" arrived="0" entered="12" left="17" laneChangedFrom="0" laneChangedTo="0"/>
        <edge id="7" sampledSeconds="3089.42" traveltime="94.78" overlapTraveltime="94.98" density="1.29" occupancy="0.65" waitingTime="0.00" speed="25.22" departed="5" arrived="0" entered="28" left="31" laneChangedFrom="0" laneChangedTo="0"/>
        <edge id="70" sampledSeconds="949.65" traveltime="174.43" overlapTraveltime="175.19" density="0.53" occupancy="0.27" waitingTime="0.00" speed="10.25" departed="6" arrived="0" entered="0" left="5" laneChangedFrom="0" laneChangedTo="0"/>
        <edge id="71" sampledSeconds="945.23" traveltime="129.82" overlapTraveltime="130.44" density="0.79" occupancy="0.40" waitingTime="0.00" speed="9.16" departed="7" arrived="0" entered="1" left="7" laneChangedFrom="0" laneChangedTo="0"/>
        <edge id="72" sampledSeconds="3301.26" traveltime="172.63" overlapTraveltime="173.27" density="1.84" occupancy="0.92" waitingTime="0.00" speed="10.36" departed="6" arrived="0" entered="18" left="14" laneChangedFrom="0" laneChangedTo="0"/>
        <edge id="73" sampledSeconds="1851.87" traveltime="154.36" overlapTraveltime="155.08" density="1.16" occupancy="0.58" waitingTime="2.00" speed="10.29" departed="7" arrived="0" entered="9" left="9" laneChangedFrom="0" laneChangedTo="0"/>
        <edge id="74" sampledSeconds="4113.17" traveltime="100.64" overlapTraveltime="100.97" density="2.58" occupancy="1.29" waitingTime="0.00" speed="15.82" departed="5" arrived="16" entered="41" left="21" laneChangedFrom="0" laneChangedTo="0"/>
        <edge id="75" sampledSeconds="2861.63" traveltime="128.91" overlapTraveltime="129.58" density="1.60" occupancy="0.80" waitingTime="1.00" speed="13.86" departed="8" arrived="0" entered="16" left="20" laneChangedFrom="0" laneChangedTo="0"/>
        <edge id="76" sampledSeconds="1272.80" traveltime="154.88" overlapTraveltime="155.60" density="0.80" occupancy="0.40" waitingTime="0.00" speed="10.25" departed="8" arrived="0" entered="1" left="8" laneChangedFrom="0" laneChangedTo="0"/>
        <edge id="8" sampledSeconds="3491.02" traveltime="95.49" overlapTraveltime="96.16" density="2.19" occupancy="1.10" waitingTime="0.00" speed="16.59" departed="10" arrived="0" entered="27" left="35" laneChangedFrom="0" laneChangedTo="0"/>
        <edge id="9" sampledSeconds="2245.41" traveltime="85.03" overlapTraveltime="85.38" density="1.25" occupancy="0.63" waitingTime="0.00" speed="21.03" departed="6" arrived="0" entered="21" left="25" laneChangedFrom="0" laneChangedTo="0"/>
    </interval>
    <interval begin="1000.00" end="2000.00" id="2">
        <edge id="1" sampledSeconds="13378.71" traveltime="222.01" overlapTraveltime="222.25" density="2.48" occupancy="1.24" waitingTime="0.00" speed="24.29" departed="8" arrived="40" entered="56" left="17" laneChangedFrom="0" laneChangedTo="0"/>
        <edge id="10" sampledSeconds="2561.90" traveltime="231.60" overlapTraveltime="232.48" density="1.07" occupancy="0.54" waitingTime="2.00" speed="10.30" departed="11" arrived="0" entered="0" left="12" laneChangedFrom="0" laneChangedTo="0"/>
        <edge id="11" sampledSeconds="3897.72" traveltime="85.53" overlapTraveltime="85.96" density="2.18" occupancy="1.09" waitingTime="3.00" speed="20.89" departed="12" arrived="0" entered="35" left="41" laneChangedFrom="0" laneChangedTo="0"/>
        <edge id="12" sampledSeconds="6222.79" traveltime="126.56" overlapTraveltime="127.39" density="3.13" occupancy="1.56" waitingTime="12.00" speed="15.66" departed="4" arrived="0" entered="46" left="47" laneChangedFrom="0" laneChangedTo="0"/>
        <edge id="13" sampledSeconds="691.76" traveltime="132.92" overlapTraveltime="133.73" density="0.58" occupancy="0.29" waitingTime="0.00" speed="8.94" departed="6" arrived="0" entered="0" left="4" laneChangedFrom="0" laneChangedTo="0"/>
        <edge id="14" sampledSeconds="6833.60" traveltime="78.08" overlapTraveltime="78.37" density="4.91" occupancy="2.45" waitingTime="0.00" speed="17.82" departed="8" arrived="32" entered="80" left="53" laneChangedFrom="0" laneChangedTo="0"/>
        <edge id="15" sampledSeconds="3951.90" traveltime="126.02" overlapTraveltime="126.56" density="1.99" occupancy="0.99" waitingTime="3.00" speed="15.77" departed="7" arrived="0" entered="23" left="32" laneChangedFrom="0" laneChangedTo="0"/>
        <edge id="16" sampledSeconds="3200.62" traveltime="63.85" overlapTraveltime="64.72" density="2.69" occupancy="1.34" waitingTime="0.00" speed="18.47" departed="3" arrived="0" entered="47" left="50" laneChangedFrom="0" laneChangedTo="0"/>
        <edge id="17" sampledSeconds="3795.30" traveltime="130.59" overlapTraveltime="131.46" density="1.91" occupancy="0.95" waitingTime="16.00" speed="15.19" departed="8" arrived="0" entered="20" left="30" laneChangedFrom="0" laneChangedTo="0"/>
        <edge id="18" sampledSeconds="1851.34" traveltime="49.30" overlapTraveltime="49.82" density="1.55" occupancy="0.78" waitingTime="0.00" speed="24.03" departed="8" arrived="0" entered="31" left="36" laneChangedFrom="0" laneChangedTo="0"/>
        <edge id="19" sampledSeconds="5137.10" traveltime="63.35" overlapTraveltime="63.78" density="4.32" occupancy="2.16" waitingTime="0.00" speed="18.74" departed="3" arrived="0" entered="77" left="81" laneChangedFrom="0" laneChangedTo="0"/>
        <edge id="2" sampledSeconds="664.37" traveltime="59.46" overlapTraveltime="60.48" density="0.48" occupancy="0.24" waitingTime="5.00" speed="23.10" departed="4" arrived="0" entered="7" left="11" laneChangedFrom="0" laneChangedTo="0"/>
        <edge id="20" sampledSeconds="9250.65" traveltime="128.79" overlapTraveltime="129.14" density="4.64" occupancy="2.32" waitingTime="0.00" speed="15.46" departed="12" arrived="40" entered="59" left="34" laneChangedFrom="0" laneChangedTo="0"/>
        <edge id="21" sampledSeconds="1915.07" traveltime="257.68" overlapTraveltime="258.39" density="0.96" occupancy="0.48" waitingTime="0.00" speed="7.72" departed="7" arrived="0" entered="0" left="7" laneChangedFrom="0" laneChangedTo="0"/>
        <edge id="22" sampledSeconds="5002.78" traveltime="119.63" overlapTraveltime="120.24" density="4.20" occupancy="2.10" waitingTime="2.00" speed="9.94" departed="14" arrived="0" entered="27" left="43" laneChangedFrom="0" laneChangedTo="0"/>
        <edge id="23" sampledSeconds="1514.33" traveltime="131.46" overlapTraveltime="132.17" density="1.27" occupancy="0.64" waitingTime="1.00" speed="9.05" departed="3" arrived="0" entered="8" left="12" laneChangedFrom="0" laneChangedTo="0"/>
        <edge id="24" sampledSeconds="3844.95" traveltime="257.55" overlapTraveltime="258.31" density="1.93" occupancy="0.97" waitingTime="1.00" speed="7.73" departed="11" arrived="0" entered="5" left="13" laneChangedFrom="0" laneChangedTo="0"/>
        <edge id="25" sampledSeconds="2862.45" traveltime="226.46" overlapTraveltime="227.54" density="2.40" occupancy="1.20" waitingTime="3.00" speed="5.25" departed="7" arrived="0" entered="5" left="14" laneChangedFrom="0" laneChangedTo="0"/>
        <edge id="26" sampledSeconds="1615.12" traveltime="226.44" overlapTraveltime="227.33" density="1.36" occupancy="0.68" waitingTime="0.00" speed="5.26" departed="8" arrived="0" entered="0" left="7" laneChangedFrom="0" laneChangedTo="0"/>
        <edge id="27" sampledSeconds="3927.61" traveltime="277.62" overlapTraveltime="278.35" density="2.19" occupancy="1.10" waitingTime="0.00" speed="6.45" departed="4" arrived="0" entered="11" left="14" laneChangedFrom="0" laneChangedTo="0"/>
        <edge id="28" sampledSeconds="8005.02" traveltime="345.27" overlapTraveltime="345.91" density="3.09" occupancy="1.55" waitingTime="0.00" speed="7.50" departed="6" arrived="0" entered="14" left="28" laneChangedFrom="0" laneChangedTo="0"/>
        <edge id="29" sampledSeconds="5675.37" traveltime="175.01" overlapTraveltime="175.95" density="2.86" occupancy="1.43" waitingTime="50.00" speed="11.29" departed="10" arrived="0" entered="26" left="30" laneChangedFrom="0" laneChangedTo="0"/>
        <edge id="3" sampledSeconds="13626.21" traveltime="221.64" overlapTraveltime="222.20" density="2.53" occupancy="1.26" waitingTime="3.00" speed="24.30" departed="6" arrived="38" entered="51" left="28" laneChangedFrom="0" laneChangedTo="0"/>
        <edge id="30" sampledSeconds="2983.59" traveltime="283.55" overlapTraveltime="284.59" density="1.29" occupancy="0.65" waitingTime="2.00" speed="8.14" departed="9" arrived="0" entered="0" left="12" laneChangedFrom="0" laneChangedTo="0"/>
        <edge id="31" sampledSeconds="3235.30" traveltime="230.79" overlapTraveltime="231.47" density="1.35" occupancy="0.68" waitingTime="0.00" speed="10.35" departed="9" arrived="0" entered="6" left="13" laneChangedFrom="0" laneChangedTo="0"/>
        <edge id="32" sampledSeconds="3133.71" traveltime="277.25" overlapTraveltime="277.96" density="1.75" occupancy="0.88" waitingTime="0.00" speed="6.46" departed="8" arrived="0" entered="5" left="11" laneChangedFrom="0" laneChangedTo="0"/>
        <edge id="33" sampledSeconds="4940.30" traveltime="115.00" overlapTraveltime="115.78" density="3.11" occupancy="1.55" waitingTime="14.00" speed="13.78" departed="3" arrived="0" entered="39" left="42" laneChangedFrom="0" laneChangedTo="0"/>
        <edge id="34" sampledSeconds="2066.45" traveltime="278.61" overlapTraveltime="279.28" density="0.80" occupancy="0.40" waitingTime="0.00" speed="9.29" departed="4" arrived="0" entered="5" left="7" laneChangedFrom="0" laneChangedTo="0"/>
        <edge id="35" sampledSeconds="4462.88" traveltime="93.72" overlapTraveltime="93.94" density="1.87" occupancy="0.93" waitingTime="0.00" speed="25.50" departed="5" arrived="0" entered="40" left="49" laneChangedFrom="0" laneChangedTo="0"/>
        <edge id="36" sampledSeconds="1265.49" traveltime="115.40" overlapTraveltime="115.96" density="0.80" occupancy="0.40" waitingTime="0.00" speed="13.76" departed="9" arrived="0" entered="3" left="9" laneChangedFrom="0" laneChangedTo="0"/>
        <edge id="37" sampledSeconds="13016.91" traveltime="188.69" overlapTraveltime="188.89" density="2.41" occupancy="1.21" waitingTime="0.00" speed="28.57" departed="5" arrived="47" entered="63" left="24" laneChangedFrom="0" laneChangedTo="0"/>
        <edge id="38" sampledSeconds="7092.89" traveltime="189.01" overlapTraveltime="189.69" density="1.32" occupancy="0.66" waitingTime="10.00" speed="28.45" departed="3" arrived="0" entered="35" left="36" laneChangedFrom="0" laneChangedTo="0"/>
        <edge id="39" sampledSeconds="3264.89" traveltime="100.56" overlapTraveltime="101.46" density="2.05" occupancy="1.03" waitingTime="10.00" speed="15.74" departed="5" arrived="0" entered="27" left="32" laneChangedFrom="0" laneChangedTo="0"/>
        <edge id="4" sampledSeconds="1770.06" traveltime="78.96" overlapTraveltime="79.89" density="1.27" occupancy="0.64" waitingTime="12.00" speed="17.49" departed="5" arrived="0" entered="18" left="22" laneChangedFrom="0" laneChangedTo="0"/>
        <edge id="40" sampledSeconds="5220.76" traveltime="278.09" overlapTraveltime="278.81" density="2.02" occupancy="1.01" waitingTime="0.00" speed="9.31" departed="5" arrived="0" entered="12" left="20" laneChangedFrom="0" laneChangedTo="0"/>
        <edge id="41" sampledSeconds="5013.70" traveltime="198.11" overlapTraveltime="198.97" density="2.80" occupancy="1.40" waitingTime="7.00" speed="9.02" departed="10" arrived="0" entered="14" left="24" laneChangedFrom="0" laneChangedTo="0"/>
        <edge id="42" sampledSeconds="4960.65" traveltime="128.52" overlapTraveltime="129.25" density="4.17" occupancy="2.08" waitingTime="0.00" speed="9.25" departed="9" arrived="0" entered="26" left="43" laneChangedFrom="0" laneChangedTo="0"/>
        <edge id="43" sampledSeconds="2705.79" traveltime="347.42" overlapTraveltime="348.21" density="1.05" occupancy="0.52" waitingTime="6.00" speed="7.45" departed="8" arrived="0" entered="0" left="8" laneChangedFrom="0" laneChangedTo="0"/>
        <edge id="44" sampledSeconds="6888.11" traveltime="197.31" overlapTraveltime="198.12" density="3.85" occupancy="1.92" waitingTime="0.00" speed="9.06" departed="6" arrived="0" entered="18" left="38" laneChangedFrom="0" laneChangedTo="0"/>
        <edge id="45" sampledSeconds="7151.45" traveltime="127.91" overlapTraveltime="128.30" density="3.59" occupancy="1.80" waitingTime="0.00" speed="15.55" departed="3" arrived="0" entered="53" left="56" laneChangedFrom="0" laneChangedTo="0"/>