<?xml version="1.0" encoding="UTF-8"?>

<!-- generated on 02/12/18 16:01:25 by SUMO Version 0.30.0
<?xml version="1.0" encoding="UTF-8"?>

<configuration xmlns:xsi="http://www.w3.org/2001/XMLSchema-instance" xsi:noNamespaceSchemaLocation="http://sumo.dlr.de/xsd/sumoConfiguration.xsd">

    <input>
        <net-file value="C:/Users/Shekar/Desktop/laptop/sumo_sim/sioux_falls/config/../network/sf_net.net.xml"/>
        <route-files value="C:/Users/Shekar/Desktop/laptop/sumo_sim/sioux_falls/config/../trips/trip.xml"/>
        <additional-files value="C:/Users/Shekar/Desktop/laptop/sumo_sim/sioux_falls/config/additional_68__0_1000.xml"/>
    </input>

    <output>
        <summary-output value="C:/Users/Shekar/Desktop/laptop/sumo_sim/sioux_falls/config/../output/summary_68__0_1000.xml"/>
    </output>

    <processing>
        <time-to-teleport value="300"/>
    </processing>

    <report>
        <log value="C:/Users/Shekar/Desktop/laptop/sumo_sim/sioux_falls/config/../output/report_68__0_1000.xml"/>
    </report>

</configuration>
-->

<meandata xmlns:xsi="http://www.w3.org/2001/XMLSchema-instance" xsi:noNamespaceSchemaLocation="http://sumo.dlr.de/xsd/meandata_file.xsd">
    <interval begin="0.00" end="1000.00" id="1">
        <edge id="1" sampledSeconds="5447.12" traveltime="222.58" overlapTraveltime="222.92" density="1.01" occupancy="0.50" waitingTime="3.00" speed="24.22" departed="6" arrived="10" entered="24" left="8" laneChangedFrom="0" laneChangedTo="0"/>
        <edge id="10" sampledSeconds="1644.92" traveltime="231.59" overlapTraveltime="232.22" density="0.69" occupancy="0.34" waitingTime="0.00" speed="10.32" departed="8" arrived="0" entered="0" left="5" laneChangedFrom="0" laneChangedTo="0"/>
        <edge id="11" sampledSeconds="2147.61" traveltime="84.88" overlapTraveltime="85.21" density="1.20" occupancy="0.60" waitingTime="0.00" speed="21.07" departed="4" arrived="0" entered="22" left="25" laneChangedFrom="0" laneChangedTo="0"/>
        <edge id="12" sampledSeconds="4448.77" traveltime="126.90" overlapTraveltime="127.62" density="2.24" occupancy="1.12" waitingTime="9.00" speed="15.64" departed="5" arrived="0" entered="31" left="34" laneChangedFrom="0" laneChangedTo="0"/>
        <edge id="13" sampledSeconds="1066.37" traveltime="133.16" overlapTraveltime="133.87" density="0.90" occupancy="0.45" waitingTime="0.00" speed="8.93" departed="8" arrived="0" entered="0" left="8" laneChangedFrom="0" laneChangedTo="0"/>
        <edge id="14" sampledSeconds="4379.80" traveltime="77.98" overlapTraveltime="78.26" density="3.15" occupancy="1.57" waitingTime="0.00" speed="17.85" departed="5" arrived="18" entered="57" left="33" laneChangedFrom="0" laneChangedTo="0"/>
        <edge id="15" sampledSeconds="2785.45" traveltime="126.67" overlapTraveltime="127.09" density="1.40" occupancy="0.70" waitingTime="0.00" speed="15.70" departed="10" arrived="0" entered="14" left="20" laneChangedFrom="0" laneChangedTo="0"/>
        <edge id="16" sampledSeconds="2496.33" traveltime="63.85" overlapTraveltime="64.54" density="2.10" occupancy="1.05" waitingTime="0.00" speed="18.52" departed="5" arrived="0" entered="35" left="37" laneChangedFrom="0" laneChangedTo="0"/>
        <edge id="17" sampledSeconds="3325.14" traveltime="130.18" overlapTraveltime="130.82" density="1.67" occupancy="0.83" waitingTime="0.00" speed="15.27" departed="11" arrived="0" entered="17" left="24" laneChangedFrom="0" laneChangedTo="0"/>
        <edge id="18" sampledSeconds="1087.33" traveltime="48.65" overlapTraveltime="49.46" density="0.91" occupancy="0.46" waitingTime="6.00" speed="24.20" departed="4" arrived="0" entered="18" left="22" laneChangedFrom="0" laneChangedTo="0"/>
        <edge id="19" sampledSeconds="3720.34" traveltime="63.62" overlapTraveltime="64.01" density="3.13" occupancy="1.56" waitingTime="0.00" speed="18.68" departed="10" arrived="0" entered="50" left="55" laneChangedFrom="0" laneChangedTo="0"/>
        <edge id="2" sampledSeconds="797.43" traveltime="60.55" overlapTraveltime="61.46" density="0.57" occupancy="0.29" waitingTime="3.00" speed="22.73" departed="7" arrived="0" entered="6" left="13" laneChangedFrom="0" laneChangedTo="0"/>
        <edge id="20" sampledSeconds="4925.56" traveltime="129.24" overlapTraveltime="129.63" density="2.47" occupancy="1.24" waitingTime="0.00" speed="15.41" departed="9" arrived="15" entered="33" left="19" laneChangedFrom="0" laneChangedTo="0"/>
        <edge id="21" sampledSeconds="909.15" traveltime="257.35" overlapTraveltime="258.01" density="0.46" occupancy="0.23" waitingTime="0.00" speed="7.73" departed="4" arrived="0" entered="0" left="3" laneChangedFrom="0" laneChangedTo="0"/>
        <edge id="22" sampledSeconds="3215.06" traveltime="119.30" overlapTraveltime="119.79" density="2.70" occupancy="1.35" waitingTime="0.00" speed="9.98" departed="5" arrived="0" entered="24" left="25" laneChangedFrom="0" laneChangedTo="0"/>
        <edge id="23" sampledSeconds="1376.35" traveltime="132.43" overlapTraveltime="133.24" density="1.16" occupancy="0.58" waitingTime="0.00" speed="8.97" departed="6" arrived="0" entered="6" left="9" laneChangedFrom="0" laneChangedTo="0"/>
        <edge id="24" sampledSeconds="2838.42" traveltime="257.51" overlapTraveltime="258.40" density="1.43" occupancy="0.71" waitingTime="2.00" speed="7.72" departed="6" arrived="0" entered="5" left="11" laneChangedFrom="0" laneChangedTo="0"/>
        <edge id="25" sampledSeconds="1857.83" traveltime="226.75" overlapTraveltime="227.66" density="1.56" occupancy="0.78" waitingTime="0.00" speed="5.25" departed="8" arrived="0" entered="2" left="5" laneChangedFrom="0" laneChangedTo="0"/>
        <edge id="26" sampledSeconds="453.47" traveltime="226.87" overlapTraveltime="227.71" density="0.38" occupancy="0.19" waitingTime="0.00" speed="5.25" departed="2" arrived="0" entered="0" left="2" laneChangedFrom="0" laneChangedTo="0"/>
        <edge id="27" sampledSeconds="2236.79" traveltime="277.32" overlapTraveltime="278.06" density="1.25" occupancy="0.62" waitingTime="0.00" speed="6.46" departed="4" arrived="0" entered="7" left="6" laneChangedFrom="0" laneChangedTo="0"/>
        <edge id="28" sampledSeconds="4775.53" traveltime="346.75" overlapTraveltime="347.41" density="1.85" occupancy="0.92" waitingTime="0.00" speed="7.46" departed="11" arrived="0" entered="10" left="7" laneChangedFrom="0" laneChangedTo="0"/>
        <edge id="29" sampledSeconds="3066.56" traveltime="174.91" overlapTraveltime="175.75" density="1.55" occupancy="0.77" waitingTime="19.00" speed="11.31" departed="4" arrived="0" entered="14" left="16" laneChangedFrom="0" laneChangedTo="0"/>
        <edge id="3" sampledSeconds="6358.96" traveltime="221.59" overlapTraveltime="221.87" density="1.18" occupancy="0.59" waitingTime="0.00" speed="24.33" departed="3" arrived="10" entered="37" left="8" laneChangedFrom="0" laneChangedTo="0"/>
        <edge id="30" sampledSeconds="856.09" traveltime="284.11" overlapTraveltime="284.76" density="0.37" occupancy="0.19" waitingTime="0.00" speed="8.14" departed="6" arrived="0" entered="0" left="1" laneChangedFrom="0" laneChangedTo="0"/>
        <edge id="31" sampledSeconds="1024.89" traveltime="230.83" overlapTraveltime="231.49" density="0.43" occupancy="0.21" waitingTime="0.00" speed="10.35" departed="4" arrived="0" entered="1" left="4" laneChangedFrom="0" laneChangedTo="0"/>
        <edge id="32" sampledSeconds="2373.61" traveltime="278.24" overlapTraveltime="278.95" density="1.33" occupancy="0.66" waitingTime="0.00" speed="6.44" departed="6" arrived="0" entered="3" left="8" laneChangedFrom="0" laneChangedTo="0"/>
        <edge id="33" sampledSeconds="2407.27" traveltime="114.82" overlapTraveltime="115.55" density="1.51" occupancy="0.76" waitingTime="1.00" speed="13.81" departed="4" arrived="0" entered="20" left="19" laneChangedFrom="0" laneChangedTo="0"/>
        <edge id="34" sampledSeconds="1384.75" traveltime="279.82" overlapTraveltime="280.56" density="0.53" occupancy="0.27" waitingTime="0.00" speed="9.25" departed="6" arrived="0" entered="0" left="4" laneChangedFrom="0" laneChangedTo="0"/>
        <edge id="35" sampledSeconds="2511.22" traveltime="95.00" overlapTraveltime="95.27" density="1.05" occupancy="0.53" waitingTime="0.00" speed="25.14" departed="7" arrived="0" entered="24" left="23" laneChangedFrom="0" laneChangedTo="0"/>
        <edge id="36" sampledSeconds="539.26" traveltime="115.39" overlapTraveltime="115.96" density="0.34" occupancy="0.17" waitingTime="0.00" speed="13.76" departed="4" arrived="0" entered="1" left="4" laneChangedFrom="0" laneChangedTo="0"/>
        <edge id="37" sampledSeconds="8563.96" traveltime="188.64" overlapTraveltime="188.89" density="1.59" occupancy="0.79" waitingTime="0.00" speed="28.57" departed="4" arrived="18" entered="48" left="21" laneChangedFrom="0" laneChangedTo="0"/>
        <edge id="38" sampledSeconds="4465.21" traveltime="190.16" overlapTraveltime="190.64" density="0.83" occupancy="0.41" waitingTime="2.00" speed="28.31" departed="5" arrived="0" entered="21" left="22" laneChangedFrom="0" laneChangedTo="0"/>
        <edge id="39" sampledSeconds="2834.38" traveltime="101.40" overlapTraveltime="102.63" density="1.78" occupancy="0.89" waitingTime="7.00" speed="15.56" departed="8" arrived="0" entered="21" left="27" laneChangedFrom="0" laneChangedTo="0"/>
        <edge id="4" sampledSeconds="1372.53" traveltime="80.61" overlapTraveltime="80.96" density="0.99" occupancy="0.49" waitingTime="0.00" speed="17.25" departed="13" arrived="0" entered="4" left="17" laneChangedFrom="0" laneChangedTo="0"/>
        <edge id="40" sampledSeconds="2756.91" traveltime="279.09" overlapTraveltime="279.88" density="1.06" occupancy="0.53" waitingTime="0.00" speed="9.27" departed="6" arrived="0" entered="6" left="9" laneChangedFrom="0" laneChangedTo="0"/>
        <edge id="41" sampledSeconds="3329.80" traveltime="198.17" overlapTraveltime="199.05" density="1.86" occupancy="0.93" waitingTime="3.00" speed="9.02" departed="9" arrived="0" entered="10" left="15" laneChangedFrom="0" laneChangedTo="0"/>
        <edge id="42" sampledSeconds="696.08" traveltime="130.36" overlapTraveltime="131.00" density="0.58" occupancy="0.29" waitingTime="0.00" speed="9.13" departed="7" arrived="0" entered="0" left="5" laneChangedFrom="0" laneChangedTo="0"/>
        <edge id="43" sampledSeconds="3101.59" traveltime="346.63" overlapTraveltime="347.46" density="1.20" occupancy="0.60" waitingTime="2.00" speed="7.46" departed="11" arrived="0" entered="0" left="7" laneChangedFrom="0" laneChangedTo="0"/>
        <edge id="44" sampledSeconds="1039.69" traveltime="197.98" overlapTraveltime="198.65" density="0.58" occupancy="0.29" waitingTime="0.00" speed="9.04" departed="5" arrived="0" entered="2" left="5" laneChangedFrom="0" laneChangedTo="0"/>
        <edge id="45" sampledSeconds="4168.80" traveltime="128.13" overlapTraveltime="128.52" density="2.09" occupancy="1.05" waitingTime="0.00" speed="15.53" departed="4" arrived="0" entered="33" left="29" laneChangedFrom="0" laneChangedTo="0"/>
        <edge id="46" sampledSeconds="2411.50" traveltime="71.19" overlapTraveltime="71.50" density="2.03" occupancy="1.01" waitingTime="0.00" speed="16.72" departed="5" arrived="11" entered="34" left="18" laneChangedFrom="0" laneChangedTo="0"/>
        <edge id="47" sampledSeconds="4739.09" traveltime="119.06" overlapTraveltime="119.55" density="3.98" occupancy="1.99" waitingTime="0.00" speed="10.00" departed="5" arrived="0" entered="37" left="36" laneChangedFrom="0" laneChangedTo="0"/>
        <edge id="48" sampledSeconds="1830.11" traveltime="173.98" overlapTraveltime="174.84" density="0.92" occupancy="0.46" waitingTime="0.00" speed="11.36" departed="9" arrived="0" entered="3" left="9" laneChangedFrom="0" laneChangedTo="0"/>
        <edge id="49" sampledSeconds="1750.68" traveltime="40.85" overlapTraveltime="41.22" density="1.47" occupancy="0.74" waitingTime="0.00" speed="28.94" departed="10" arrived="0" entered="33" left="42" laneChangedFrom="0" laneChangedTo="0"/>
        <edge id="5" sampledSeconds="1984.85" traveltime="58.52" overlapTraveltime="58.76" density="1.43" occupancy="0.71" waitingTime="0.00" speed="23.78" departed="6" arrived="11" entered="29" left="22" laneChangedFrom="0" laneChangedTo="0"/>
        <edge id="50" sampledSeconds="4389.41" traveltime="159.51" overlapTraveltime="160.25" density="2.21" occupancy="1.10" waitingTime="13.00" speed="12.44" departed="9" arrived="0" entered="19" left="27" laneChangedFrom="0" laneChangedTo="0"/>
        <edge id="51" sampledSeconds="613.17" traveltime="281.82" overlapTraveltime="282.47" density="0.27" occupancy="0.13" waitingTime="0.00" speed="8.20" departed="3" arrived="0" entered="0" left="2" laneChangedFrom="0" laneChangedTo="0"/>
        <edge id="52" sampledSeconds="1812.27" traveltime="40.41" overlapTraveltime="40.82" density="1.53" occupancy="0.76" waitingTime="0.00" speed="29.23" departed="10" arrived="0" entered="36" left="42" laneChangedFrom="0" laneChangedTo="0"/>
        <edge id="53" sampledSeconds="5143.11" traveltime="111.30" overlapTraveltime="111.86" density="3.70" occupancy="1.85" waitingTime="1.00" speed="12.49" departed="11" arrived="0" entered="39" left="40" laneChangedFrom="0" laneChangedTo="0"/>
        <edge id="54" sampledSeconds="1650.61" traveltime="48.70" overlapTraveltime="48.96" density="1.38" occupancy="0.69" waitingTime="0.00" speed="24.45" departed="4" arrived="17" entered="30" left="16" laneChangedFrom="0" laneChangedTo="0"/>
        <edge id="55" sampledSeconds="1587.96" traveltime="161.90" overlapTraveltime="162.97" density="0.80" occupancy="0.40" waitingTime="3.00" speed="12.24" departed="10" arrived="0" entered="1" left="9" laneChangedFrom="0" laneChangedTo="0"/>
        <edge id="56" sampledSeconds="6931.90" traveltime="215.37" overlapTraveltime="215.67" density="1.21" occupancy="0.60" waitingTime="0.00" speed="26.60" departed="9" arrived="13" entered="32" left="11" laneChangedFrom="0" laneChangedTo="0"/>
        <edge id="57" sampledSeconds="2934.26" traveltime="129.71" overlapTraveltime="130.42" density="1.47" occupancy="0.74" waitingTime="5.00" speed="15.30" departed="4" arrived="0" entered="21" left="21" laneChangedFrom="0" laneChangedTo="0"/>
        <edge id="58" sampledSeconds="3752.86" traveltime="110.45" overlapTraveltime="110.84" density="2.70" occupancy="1.35" waitingTime="0.00" speed="12.60" departed="7" arrived="0" entered="28" left="33" laneChangedFrom="0" laneChangedTo="0"/>
        <edge id="59" sampledSeconds="5125.68" traveltime="240.76" overlapTraveltime="241.24" density="1.85" occupancy="0.92" waitingTime="0.00" speed="11.53" departed="5" arrived="11" entered="23" left="3" laneChangedFrom="0" laneChangedTo="0"/>
        <edge id="6" sampledSeconds="1839.51" traveltime="95.31" overlapTraveltime="96.08" density="1.16" occupancy="0.58" waitingTime="6.00" speed="16.61" departed="7" arrived="0" entered="14" left="19" laneChangedFrom="0" laneChangedTo="0"/>
        <edge id="60" sampledSeconds="3589.92" traveltime="215.91" overlapTraveltime="216.17" density="0.63" occupancy="0.31" waitingTime="0.00" speed="26.54" departed="6" arrived="0" entered="13" left="14" laneChangedFrom="0" laneChangedTo="0"/>
        <edge id="61" sampledSeconds="1184.13" traveltime="242.27" overlapTraveltime="242.90" density="0.43" occupancy="0.21" waitingTime="0.00" speed="11.45" departed="4" arrived="0" entered="1" left="4" laneChangedFrom="0" laneChangedTo="0"/>
        <edge id="62" sampledSeconds="4060.28" traveltime="223.06" overlapTraveltime="223.93" density="2.05" occupancy="1.02" waitingTime="15.00" speed="8.88" departed="5" arrived="0" entered="15" left="17" laneChangedFrom="0" laneChangedTo="0"/>
        <edge id="63" sampledSeconds="1098.82" traveltime="219.33" overlapTraveltime="220.24" density="0.43" occupancy="0.22" waitingTime="1.00" speed="11.57" departed="5" arrived="1" entered="0" left="4" laneChangedFrom="0" laneChangedTo="0"/>
        <edge id="64" sampledSeconds="5241.68" traveltime="221.49" overlapTraveltime="222.06" density="2.64" occupancy="1.32" waitingTime="0.00" speed="8.96" departed="4" arrived="8" entered="25" left="9" laneChangedFrom="0" laneChangedTo="0"/>
        <edge id="65" sampledSeconds="3185.01" traveltime="126.75" overlapTraveltime="127.22" density="2.01" occupancy="1.00" waitingTime="0.00" speed="12.51" departed="11" arrived="6" entered="15" left="17" laneChangedFrom="0" laneChangedTo="0"/>
        <edge id="66" sampledSeconds="4393.02" traveltime="127.32" overlapTraveltime="127.69" density="2.45" occupancy="1.23" waitingTime="0.00" speed="14.06" departed="7" arrived="0" entered="30" left="30" laneChangedFrom="0" laneChangedTo="0"/>
        <edge id="67" sampledSeconds="1998.55" traveltime="71.26" overlapTraveltime="71.76" density="1.68" occupancy="0.84" waitingTime="0.00" speed="16.66" departed="8" arrived="0" entered="21" left="26" laneChangedFrom="0" laneChangedTo="0"/>
        <edge id="68" sampledSeconds="1541.20" traveltime="256.61" overlapTraveltime="257.38" density="0.61" occupancy="0.30" waitingTime="0.00" speed="9.90" departed="6" arrived="0" entered="0" left="6" laneChangedFrom="0" laneChangedTo="0"/>
        <edge id="69" sampledSeconds="2000.60" traveltime="60.33" overlapTraveltime="60.69" density="1.26" occupancy="0.63" waitingTime="0.00" speed="26.23" departed="8" arrived="0" entered="27" left="32" laneChangedFrom="0" laneChangedTo="0"/>
        <edge id="7" sampledSeconds="3186.74" traveltime="94.83" overlapTraveltime="95.04" density="1.33" occupancy="0.67" waitingTime="0.00" speed="25.21" departed="5" arrived="0" entered="29" left="32" laneChangedFrom="0" laneChangedTo="0"/>
        <edge id="70" sampledSeconds="947.64" traveltime="174.22" overlapTraveltime="174.91" density="0.53" occupancy="0.26" waitingTime="0.00" speed="10.26" departed="6" arrived="0" entered="0" left="5" laneChangedFrom="0" laneChangedTo="0"/>
        <edge id="71" sampledSeconds="946.80" traveltime="129.94" overlapTraveltime="130.65" density="0.80" occupancy="0.40" waitingTime="0.00" speed="9.15" departed="7" arrived="0" entered="1" left="7" laneChangedFrom="0" laneChangedTo="0"/>
        <edge id="72" sampledSeconds="2460.15" traveltime="173.40" overlapTraveltime="174.24" density="1.37" occupancy="0.69" waitingTime="6.00" speed="10.30" departed="6" arrived="2" entered="11" left="9" laneChangedFrom="0" laneChangedTo="0"/>
        <edge id="73" sampledSeconds="1657.49" traveltime="154.91" overlapTraveltime="155.67" density="1.04" occupancy="0.52" waitingTime="6.00" speed="10.25" departed="7" arrived="0" entered="6" left="9" laneChangedFrom="0" laneChangedTo="0"/>
        <edge id="74" sampledSeconds="4483.07" traveltime="100.66" overlapTraveltime="100.99" density="2.82" occupancy="1.41" waitingTime="0.00" speed="15.81" departed="5" arrived="18" entered="48" left="21" laneChangedFrom="0" laneChangedTo="0"/>
        <edge id="75" sampledSeconds="2996.59" traveltime="129.47" overlapTraveltime="130.25" density="1.67" occupancy="0.84" waitingTime="5.00" speed="13.79" departed="8" arrived="0" entered="17" left="21" laneChangedFrom="0" laneChangedTo="0"/>
        <edge id="76" sampledSeconds="1270.48" traveltime="154.71" overlapTraveltime="155.37" density="0.80" occupancy="0.40" waitingTime="0.00" speed="10.27" departed="8" arrived="0" entered="1" left="8" laneChangedFrom="0" laneChangedTo="0"/>
        <edge id="8" sampledSeconds="3590.97" traveltime="95.63" overlapTraveltime="96.37" density="2.26" occupancy="1.13" waitingTime="1.00" speed="16.56" departed="10" arrived="0" entered="28" left="36" laneChangedFrom="0" laneChangedTo="0"/>
        <edge id="9" sampledSeconds="2173.23" traveltime="85.17" overlapTraveltime="85.60" density="1.21" occupancy="0.61" waitingTime="0.00" speed="20.97" departed="6" arrived="0" entered="20" left="24" laneChangedFrom="0" laneChangedTo="0"/>
    </interval>
    <interval begin="1000.00" end="2000.00" id="2">
        <edge id="1" sampledSeconds="13421.45" traveltime="222.00" overlapTraveltime="222.24" density="2.49" occupancy="1.24" waitingTime="0.00" speed="24.29" departed="8" arrived="41" entered="56" left="17" laneChangedFrom="0" laneChangedTo="0"/>
        <edge id="10" sampledSeconds="2559.64" traveltime="231.48" overlapTraveltime="232.32" density="1.07" occupancy="0.54" waitingTime="1.00" speed="10.31" departed="11" arrived="0" entered="0" left="12" laneChangedFrom="0" laneChangedTo="0"/>
        <edge id="11" sampledSeconds="3881.52" traveltime="85.57" overlapTraveltime="86.02" density="2.17" occupancy="1.08" waitingTime="1.00" speed="20.87" departed="12" arrived="0" entered="35" left="41" laneChangedFrom="0" laneChangedTo="0"/>
        <edge id="12" sampledSeconds="6230.27" traveltime="126.53" overlapTraveltime="127.36" density="3.13" occupancy="1.57" waitingTime="11.00" speed="15.67" departed="4" arrived="0" entered="47" left="47" laneChangedFrom="0" laneChangedTo="0"/>
        <edge id="13" sampledSeconds="691.92" traveltime="132.91" overlapTraveltime="133.57" density="0.58" occupancy="0.29" waitingTime="0.00" speed="8.95" departed="6" arrived="0" entered="0" left="4" laneChangedFrom="0" laneChangedTo="0"/>
        <edge id="14" sampledSeconds="6879.01" traveltime="78.07" overlapTraveltime="78.36" density="4.94" occupancy="2.47" waitingTime="0.00" speed="17.83" departed="8" arrived="32" entered="80" left="53" laneChangedFrom="0" laneChangedTo="0"/>
        <edge id="15" sampledSeconds="3933.72" traveltime="125.96" overlapTraveltime="126.34" density="1.98" occupancy="0.99" waitingTime="0.00" speed="15.79" departed="7" arrived="0" entered="23" left="32" laneChangedFrom="0" laneChangedTo="0"/>
        <edge id="16" sampledSeconds="3185.63" traveltime="63.66" overlapTraveltime="64.44" density="2.68" occupancy="1.34" waitingTime="0.00" speed="18.55" departed="3" arrived="0" entered="46" left="50" laneChangedFrom="0" laneChangedTo="0"/>
        <edge id="17" sampledSeconds="3775.56" traveltime="129.78" overlapTraveltime="130.55" density="1.90" occupancy="0.95" waitingTime="0.00" speed="15.30" departed="8" arrived="0" entered="20" left="30" laneChangedFrom="0" laneChangedTo="0"/>
        <edge id="18" sampledSeconds="1902.32" traveltime="49.34" overlapTraveltime="49.91" density="1.60" occupancy="0.80" waitingTime="0.00" speed="23.98" departed="8" arrived="0" entered="32" left="37" laneChangedFrom="0" laneChangedTo="0"/>
        <edge id="19" sampledSeconds="5131.51" traveltime="63.17" overlapTraveltime="63.60" density="4.31" occupancy="2.16" waitingTime="0.00" speed="18.80" departed="3" arrived="0" entered="78" left="81" laneChangedFrom="0" laneChangedTo="0"/>
        <edge id="2" sampledSeconds="662.25" traveltime="59.59" overlapTraveltime="60.28" density="0.48" occupancy="0.24" waitingTime="0.00" speed="23.17" departed="4" arrived="0" entered="7" left="11" laneChangedFrom="0" laneChangedTo="0"/>
        <edge id="20" sampledSeconds="9322.87" traveltime="128.66" overlapTraveltime="129.00" density="4.68" occupancy="2.34" waitingTime="0.00" speed="15.48" departed="12" arrived="40" entered="59" left="35" laneChangedFrom="0" laneChangedTo="0"/>
        <edge id="21" sampledSeconds="1915.74" traveltime="257.69" overlapTraveltime="258.57" density="0.96" occupancy="0.48" waitingTime="0.00" speed="7.72" departed="7" arrived="0" entered="0" left="7" laneChangedFrom="0" laneChangedTo="0"/>
        <edge id="22" sampledSeconds="4955.40" traveltime="119.57" overlapTraveltime="120.13" density="4.16" occupancy="2.08" waitingTime="0.00" speed="9.95" departed="14" arrived="0" entered="27" left="42" laneChangedFrom="0" laneChangedTo="0"/>
        <edge id="23" sampledSeconds="1516.94" traveltime="131.66" overlapTraveltime="132.40" density="1.27" occupancy="0.64" waitingTime="0.00" speed="9.03" departed="3" arrived="0" entered="8" left="12" laneChangedFrom="0" laneChangedTo="0"/>
        <edge id="24" sampledSeconds="3858.65" traveltime="258.34" overlapTraveltime="259.21" density="1.94" occupancy="0.97" waitingTime="10.00" speed="7.70" departed="11" arrived="0" entered="5" left="13" laneChangedFrom="0" laneChangedTo="0"/>
        <edge id="25" sampledSeconds="2879.38" traveltime="227.50" overlapTraveltime="228.53" density="2.42" occupancy="1.21" waitingTime="18.00" speed="5.23" departed="7" arrived="0" entered="5" left="14" laneChangedFrom="0" laneChangedTo="0"/>
        <edge id="26" sampledSeconds="1618.39" traveltime="226.83" overlapTraveltime="227.73" density="1.36" occupancy="0.68" waitingTime="0.00" speed="5.25" departed="8" arrived="0" entered="0" left="7" laneChangedFrom="0" laneChangedTo="0"/>
        <edge id="27" sampledSeconds="3927.93" traveltime="277.72" overlapTraveltime="278.42" density="2.19" occupancy="1.10" waitingTime="0.00" speed="6.45" departed="4" arrived="0" entered="11" left="14" laneChangedFrom="0" laneChangedTo="0"/>
        <edge id="28" sampledSeconds="7993.22" traveltime="344.96" overlapTraveltime="345.66" density="3.09" occupancy="1.54" waitingTime="0.00" speed="7.50" departed="6" arrived="0" entered="14" left="28" laneChangedFrom="0" laneChangedTo="0"/>
        <edge id="29" sampledSeconds="5464.23" traveltime="173.97" overlapTraveltime="174.85" density="2.76" occupancy="1.38" waitingTime="21.00" speed="11.36" departed="10" arrived="0" entered="25" left="29" laneChangedFrom="0" laneChangedTo="0"/>
        <edge id="3" sampledSeconds="13655.40" traveltime="221.56" overlapTraveltime="221.99" density="2.53" occupancy="1.27" waitingTime="1.00" speed="24.32" departed="6" arrived="38" entered="52" left="28" laneChangedFrom="0" laneChangedTo="0"/>
        <edge id="30" sampledSeconds="2980.64" traveltime="283.52" overlapTraveltime="284.42" density="1.29" occupancy="0.64" waitingTime="6.00" speed="8.15" departed="9" arrived="0" entered="0" left="12" laneChangedFrom="0" laneChangedTo="0"/>
        <edge id="31" sampledSeconds="3231.33" traveltime="230.46" overlapTraveltime="231.14" density="1.35" occupancy="0.68" waitingTime="0.00" speed="10.36" departed="9" arrived="0" entered="6" left="13" laneChangedFrom="0" laneChangedTo="0"/>
        <edge id="32" sampledSeconds="2872.00" traveltime="278.38" overlapTraveltime="279.14" density="1.60" occupancy="0.80" waitingTime="0.00" speed="6.43" departed="8" arrived="0" entered="4" left="10" laneChangedFrom="0" laneChangedTo="0"/>
        <edge id="33" sampledSeconds="3764.13" traveltime="114.54" overlapTraveltime="115.32" density="2.37" occupancy="1.18" waitingTime="2.00" speed="13.83" departed="3" arrived="0" entered="29" left="32" laneChangedFrom="0" laneChangedTo="0"/>
        <edge id="34" sampledSeconds="2349.78" traveltime="278.69" overlapTraveltime="279.39" density="0.91" occupancy="0.45" waitingTime="0.00" speed="9.29" departed="4" arrived="0" entered="6" left="8" laneChangedFrom="0" laneChangedTo="0"/>
        <edge id="35" sampledSeconds="4467.95" traveltime="93.40" overlapTraveltime="93.62" density="1.87" occupancy="0.93" waitingTime="0.00" speed="25.59" departed="5" arrived="0" entered="40" left="49" laneChangedFrom="0" laneChangedTo="0"/>
        <edge id="36" sampledSeconds="1265.76" traveltime="115.55" overlapTraveltime="116.14" density="0.80" occupancy="0.40" waitingTime="0.00" speed="13.74" departed="9" arrived="0" entered="3" left="9" laneChangedFrom="0" laneChangedTo="0"/>
        <edge id="37" sampledSeconds="12999.24" traveltime="188.79" overlapTraveltime="189.00" density="2.41" occupancy="1.21" waitingTime="0.00" speed="28.56" departed="5" arrived="46" entered="63" left="24" laneChangedFrom="0" laneChangedTo="0"/>
        <edge id="38" sampledSeconds="8983.49" traveltime="189.06" overlapTraveltime="189.59" density="1.67" occupancy="0.83" waitingTime="2.00" speed="28.47" departed="3" arrived="0" entered="45" left="46" laneChangedFrom="0" laneChangedTo="0"/>
        <edge id="39" sampledSeconds="3251.92" traveltime="100.72" overlapTraveltime="101.31" density="2.04" occupancy="1.02" waitingTime="2.00" speed="15.76" departed="5" arrived="0" entered="27" left="32" laneChangedFrom="0" laneChangedTo="0"/>
        <edge id="4" sampledSeconds="1751.81" traveltime="78.73" overlapTraveltime="79.10" density="1.26" occupancy="0.63" waitingTime="0.00" speed="17.66" departed="5" arrived="0" entered="18" left="21" laneChangedFrom="0" laneChangedTo="0"/>
        <edge id="40" sampledSeconds="2760.54" traveltime="278.49" overlapTraveltime="279.17" density="1.07" occupancy="0.53" waitingTime="0.00" speed="9.30" departed="5" arrived="0" entered="6" left="10" laneChangedFrom="0" laneChangedTo="0"/>
        <edge id="41" sampledSeconds="5025.06" traveltime="198.62" overlapTraveltime="199.46" density="2.81" occupancy="1.40" waitingTime="20.00" speed="9.00" departed="10" arrived="0" entered="14" left="24" laneChangedFrom="0" laneChangedTo="0"/>
        <edge id="42" sampledSeconds="1640.01" traveltime="129.28" overlapTraveltime="129.97" density="1.38" occupancy="0.69" waitingTime="0.00" speed="9.20" departed="9" arrived="0" entered="2" left="13" laneChangedFrom="0" laneChangedTo="0"/>
        <edge id="43" sampledSeconds="2701.04" traveltime="346.47" overlapTraveltime="347.19" density="1.04" occupancy="0.52" waitingTime="0.00" speed="7.47" departed="8" arrived="0" entered="0" left="8" laneChangedFrom="0" laneChangedTo="0"/>
        <edge id="44" sampledSeconds="1465.78" traveltime="198.09" overlapTraveltime="198.75" density="0.82" occupancy="0.41" waitingTime="0.00" speed="9.03" departed="6" arrived="0" entered="0" left="7" laneChangedFrom="0" laneChangedTo="0"/>
        <edge id="45" sampledSeconds="7166.18" traveltime="127.87" overlapTraveltime="128.27" density="3.60" occupancy="1.80" waitingTime="0.00" speed="15.56" departed="3" arrived="0" entered="53" left="56" laneChangedFrom="0" laneChangedTo="0"/>