<?xml version="1.0" encoding="UTF-8"?>

<!-- generated on 02/12/18 16:00:55 by SUMO Version 0.30.0
<?xml version="1.0" encoding="UTF-8"?>

<configuration xmlns:xsi="http://www.w3.org/2001/XMLSchema-instance" xsi:noNamespaceSchemaLocation="http://sumo.dlr.de/xsd/sumoConfiguration.xsd">

    <input>
        <net-file value="C:/Users/Shekar/Desktop/laptop/sumo_sim/sioux_falls/config/../network/sf_net.net.xml"/>
        <route-files value="C:/Users/Shekar/Desktop/laptop/sumo_sim/sioux_falls/config/../trips/trip.xml"/>
        <additional-files value="C:/Users/Shekar/Desktop/laptop/sumo_sim/sioux_falls/config/additional_67__0_1000.xml"/>
    </input>

    <output>
        <summary-output value="C:/Users/Shekar/Desktop/laptop/sumo_sim/sioux_falls/config/../output/summary_67__0_1000.xml"/>
    </output>

    <processing>
        <time-to-teleport value="300"/>
    </processing>

    <report>
        <log value="C:/Users/Shekar/Desktop/laptop/sumo_sim/sioux_falls/config/../output/report_67__0_1000.xml"/>
    </report>

</configuration>
-->

<meandata xmlns:xsi="http://www.w3.org/2001/XMLSchema-instance" xsi:noNamespaceSchemaLocation="http://sumo.dlr.de/xsd/meandata_file.xsd">
    <interval begin="0.00" end="1000.00" id="1">
        <edge id="1" sampledSeconds="5442.06" traveltime="222.57" overlapTraveltime="222.94" density="1.01" occupancy="0.50" waitingTime="3.00" speed="24.22" departed="6" arrived="10" entered="24" left="8" laneChangedFrom="0" laneChangedTo="0"/>
        <edge id="10" sampledSeconds="1640.87" traveltime="231.42" overlapTraveltime="232.03" density="0.69" occupancy="0.34" waitingTime="0.00" speed="10.32" departed="8" arrived="0" entered="0" left="5" laneChangedFrom="0" laneChangedTo="0"/>
        <edge id="11" sampledSeconds="2225.77" traveltime="84.76" overlapTraveltime="85.07" density="1.24" occupancy="0.62" waitingTime="0.00" speed="21.11" departed="4" arrived="0" entered="23" left="26" laneChangedFrom="0" laneChangedTo="0"/>
        <edge id="12" sampledSeconds="4449.21" traveltime="126.88" overlapTraveltime="127.65" density="2.24" occupancy="1.12" waitingTime="6.00" speed="15.63" departed="5" arrived="0" entered="31" left="34" laneChangedFrom="0" laneChangedTo="0"/>
        <edge id="13" sampledSeconds="1060.19" traveltime="132.39" overlapTraveltime="133.09" density="0.89" occupancy="0.45" waitingTime="0.00" speed="8.98" departed="8" arrived="0" entered="0" left="8" laneChangedFrom="0" laneChangedTo="0"/>
        <edge id="14" sampledSeconds="4204.12" traveltime="78.04" overlapTraveltime="78.32" density="3.02" occupancy="1.51" waitingTime="0.00" speed="17.84" departed="5" arrived="17" entered="54" left="31" laneChangedFrom="0" laneChangedTo="0"/>
        <edge id="15" sampledSeconds="2910.23" traveltime="126.65" overlapTraveltime="127.05" density="1.46" occupancy="0.73" waitingTime="0.00" speed="15.71" departed="10" arrived="0" entered="15" left="21" laneChangedFrom="0" laneChangedTo="0"/>
        <edge id="16" sampledSeconds="2495.80" traveltime="63.94" overlapTraveltime="64.55" density="2.10" occupancy="1.05" waitingTime="0.00" speed="18.52" departed="5" arrived="0" entered="35" left="37" laneChangedFrom="0" laneChangedTo="0"/>
        <edge id="17" sampledSeconds="3629.47" traveltime="130.08" overlapTraveltime="130.69" density="1.82" occupancy="0.91" waitingTime="0.00" speed="15.28" departed="11" arrived="0" entered="21" left="25" laneChangedFrom="0" laneChangedTo="0"/>
        <edge id="18" sampledSeconds="1128.84" traveltime="48.53" overlapTraveltime="49.12" density="0.95" occupancy="0.47" waitingTime="0.00" speed="24.37" departed="4" arrived="0" entered="19" left="23" laneChangedFrom="0" laneChangedTo="0"/>
        <edge id="19" sampledSeconds="3556.47" traveltime="63.79" overlapTraveltime="64.21" density="2.99" occupancy="1.49" waitingTime="0.00" speed="18.62" departed="10" arrived="0" entered="47" left="53" laneChangedFrom="0" laneChangedTo="0"/>
        <edge id="2" sampledSeconds="744.48" traveltime="61.16" overlapTraveltime="62.17" density="0.53" occupancy="0.27" waitingTime="2.00" speed="22.47" departed="7" arrived="0" entered="5" left="12" laneChangedFrom="0" laneChangedTo="0"/>
        <edge id="20" sampledSeconds="4992.08" traveltime="129.23" overlapTraveltime="129.63" density="2.51" occupancy="1.25" waitingTime="1.00" speed="15.41" departed="9" arrived="15" entered="33" left="20" laneChangedFrom="0" laneChangedTo="0"/>
        <edge id="21" sampledSeconds="907.04" traveltime="256.71" overlapTraveltime="257.46" density="0.46" occupancy="0.23" waitingTime="0.00" speed="7.75" departed="4" arrived="0" entered="0" left="3" laneChangedFrom="0" laneChangedTo="0"/>
        <edge id="22" sampledSeconds="3151.28" traveltime="119.18" overlapTraveltime="119.69" density="2.65" occupancy="1.32" waitingTime="0.00" speed="9.99" departed="5" arrived="0" entered="24" left="24" laneChangedFrom="0" laneChangedTo="0"/>
        <edge id="23" sampledSeconds="1369.84" traveltime="131.84" overlapTraveltime="132.54" density="1.15" occupancy="0.58" waitingTime="1.00" speed="9.02" departed="6" arrived="0" entered="6" left="9" laneChangedFrom="0" laneChangedTo="0"/>
        <edge id="24" sampledSeconds="2580.14" traveltime="257.50" overlapTraveltime="258.41" density="1.30" occupancy="0.65" waitingTime="5.00" speed="7.72" departed="6" arrived="0" entered="4" left="10" laneChangedFrom="0" laneChangedTo="0"/>
        <edge id="25" sampledSeconds="2089.91" traveltime="226.65" overlapTraveltime="227.51" density="1.76" occupancy="0.88" waitingTime="0.00" speed="5.25" departed="8" arrived="0" entered="3" left="6" laneChangedFrom="0" laneChangedTo="0"/>
        <edge id="26" sampledSeconds="509.36" traveltime="225.79" overlapTraveltime="226.65" density="0.43" occupancy="0.21" waitingTime="0.00" speed="5.27" departed="2" arrived="0" entered="1" left="2" laneChangedFrom="0" laneChangedTo="0"/>
        <edge id="27" sampledSeconds="2181.09" traveltime="278.10" overlapTraveltime="278.85" density="1.22" occupancy="0.61" waitingTime="0.00" speed="6.44" departed="4" arrived="0" entered="6" left="6" laneChangedFrom="0" laneChangedTo="0"/>
        <edge id="28" sampledSeconds="4757.29" traveltime="346.49" overlapTraveltime="347.15" density="1.84" occupancy="0.92" waitingTime="0.00" speed="7.47" departed="11" arrived="0" entered="10" left="7" laneChangedFrom="0" laneChangedTo="0"/>
        <edge id="29" sampledSeconds="3042.26" traveltime="173.81" overlapTraveltime="174.64" density="1.53" occupancy="0.77" waitingTime="6.00" speed="11.38" departed="4" arrived="0" entered="14" left="16" laneChangedFrom="0" laneChangedTo="0"/>
        <edge id="3" sampledSeconds="5965.04" traveltime="221.68" overlapTraveltime="221.98" density="1.11" occupancy="0.55" waitingTime="0.00" speed="24.32" departed="3" arrived="10" entered="35" left="7" laneChangedFrom="0" laneChangedTo="0"/>
        <edge id="30" sampledSeconds="1138.44" traveltime="283.65" overlapTraveltime="284.32" density="0.49" occupancy="0.25" waitingTime="0.00" speed="8.15" departed="6" arrived="0" entered="1" left="2" laneChangedFrom="0" laneChangedTo="0"/>
        <edge id="31" sampledSeconds="1032.15" traveltime="232.13" overlapTraveltime="233.08" density="0.43" occupancy="0.22" waitingTime="3.00" speed="10.28" departed="4" arrived="0" entered="1" left="4" laneChangedFrom="0" laneChangedTo="0"/>
        <edge id="32" sampledSeconds="2370.65" traveltime="277.77" overlapTraveltime="278.52" density="1.32" occupancy="0.66" waitingTime="0.00" speed="6.45" departed="6" arrived="0" entered="3" left="8" laneChangedFrom="0" laneChangedTo="0"/>
        <edge id="33" sampledSeconds="2418.66" traveltime="115.22" overlapTraveltime="116.03" density="1.52" occupancy="0.76" waitingTime="3.00" speed="13.75" departed="4" arrived="0" entered="20" left="19" laneChangedFrom="0" laneChangedTo="0"/>
        <edge id="34" sampledSeconds="1384.00" traveltime="279.64" overlapTraveltime="280.36" density="0.53" occupancy="0.27" waitingTime="0.00" speed="9.26" departed="6" arrived="0" entered="0" left="4" laneChangedFrom="0" laneChangedTo="0"/>
        <edge id="35" sampledSeconds="2525.89" traveltime="95.08" overlapTraveltime="95.35" density="1.06" occupancy="0.53" waitingTime="0.00" speed="25.12" departed="7" arrived="0" entered="24" left="23" laneChangedFrom="0" laneChangedTo="0"/>
        <edge id="36" sampledSeconds="474.78" traveltime="116.13" overlapTraveltime="119.08" density="0.30" occupancy="0.15" waitingTime="7.00" speed="13.40" departed="4" arrived="0" entered="0" left="4" laneChangedFrom="0" laneChangedTo="0"/>
        <edge id="37" sampledSeconds="8616.11" traveltime="188.94" overlapTraveltime="189.19" density="1.60" occupancy="0.80" waitingTime="0.00" speed="28.53" departed="4" arrived="18" entered="49" left="21" laneChangedFrom="0" laneChangedTo="0"/>
        <edge id="38" sampledSeconds="4466.39" traveltime="190.03" overlapTraveltime="190.72" density="0.83" occupancy="0.41" waitingTime="3.00" speed="28.30" departed="5" arrived="0" entered="21" left="22" laneChangedFrom="0" laneChangedTo="0"/>
        <edge id="39" sampledSeconds="2823.57" traveltime="101.32" overlapTraveltime="102.24" density="1.77" occupancy="0.89" waitingTime="3.00" speed="15.62" departed="8" arrived="0" entered="21" left="27" laneChangedFrom="0" laneChangedTo="0"/>
        <edge id="4" sampledSeconds="1375.60" traveltime="80.62" overlapTraveltime="81.14" density="0.99" occupancy="0.49" waitingTime="0.00" speed="17.22" departed="13" arrived="0" entered="4" left="17" laneChangedFrom="0" laneChangedTo="0"/>
        <edge id="40" sampledSeconds="2758.84" traveltime="279.30" overlapTraveltime="279.99" density="1.06" occupancy="0.53" waitingTime="0.00" speed="9.27" departed="6" arrived="0" entered="6" left="9" laneChangedFrom="0" laneChangedTo="0"/>
        <edge id="41" sampledSeconds="3313.97" traveltime="197.49" overlapTraveltime="198.17" density="1.85" occupancy="0.93" waitingTime="0.00" speed="9.06" departed="9" arrived="0" entered="10" left="15" laneChangedFrom="0" laneChangedTo="0"/>
        <edge id="42" sampledSeconds="695.21" traveltime="130.05" overlapTraveltime="130.72" density="0.58" occupancy="0.29" waitingTime="0.00" speed="9.15" departed="7" arrived="0" entered="0" left="5" laneChangedFrom="0" laneChangedTo="0"/>
        <edge id="43" sampledSeconds="3119.65" traveltime="348.26" overlapTraveltime="349.19" density="1.21" occupancy="0.60" waitingTime="5.00" speed="7.43" departed="11" arrived="0" entered="0" left="7" laneChangedFrom="0" laneChangedTo="0"/>
        <edge id="44" sampledSeconds="1040.11" traveltime="198.42" overlapTraveltime="199.18" density="0.58" occupancy="0.29" waitingTime="0.00" speed="9.01" departed="5" arrived="0" entered="2" left="5" laneChangedFrom="0" laneChangedTo="0"/>
        <edge id="45" sampledSeconds="2100.99" traveltime="128.84" overlapTraveltime="129.25" density="1.06" occupancy="0.53" waitingTime="0.00" speed="15.44" departed="4" arrived="0" entered="15" left="14" laneChangedFrom="0" laneChangedTo="0"/>
        <edge id="46" sampledSeconds="2437.30" traveltime="71.44" overlapTraveltime="71.98" density="2.05" occupancy="1.02" waitingTime="0.00" speed="16.61" departed="5" arrived="0" entered="33" left="29" laneChangedFrom="0" laneChangedTo="0"/>
        <edge id="47" sampledSeconds="4089.22" traveltime="119.33" overlapTraveltime="119.83" density="3.43" occupancy="1.72" waitingTime="0.00" speed="9.98" departed="5" arrived="0" entered="31" left="32" laneChangedFrom="0" laneChangedTo="0"/>
        <edge id="48" sampledSeconds="1836.43" traveltime="173.53" overlapTraveltime="174.69" density="0.93" occupancy="0.46" waitingTime="2.00" speed="11.37" departed="9" arrived="0" entered="3" left="9" laneChangedFrom="0" laneChangedTo="0"/>
        <edge id="49" sampledSeconds="1709.19" traveltime="40.86" overlapTraveltime="41.21" density="1.44" occupancy="0.72" waitingTime="0.00" speed="28.95" departed="10" arrived="0" entered="32" left="41" laneChangedFrom="0" laneChangedTo="0"/>
        <edge id="5" sampledSeconds="1988.67" traveltime="58.62" overlapTraveltime="58.87" density="1.43" occupancy="0.71" waitingTime="0.00" speed="23.73" departed="6" arrived="11" entered="29" left="22" laneChangedFrom="0" laneChangedTo="0"/>
        <edge id="50" sampledSeconds="4066.54" traveltime="159.45" overlapTraveltime="160.19" density="2.04" occupancy="1.02" waitingTime="6.00" speed="12.45" departed="9" arrived="0" entered="17" left="25" laneChangedFrom="0" laneChangedTo="0"/>
        <edge id="51" sampledSeconds="616.29" traveltime="283.06" overlapTraveltime="283.79" density="0.27" occupancy="0.13" waitingTime="0.00" speed="8.16" departed="3" arrived="0" entered="0" left="2" laneChangedFrom="0" laneChangedTo="0"/>
        <edge id="52" sampledSeconds="1494.26" traveltime="40.78" overlapTraveltime="41.42" density="1.26" occupancy="0.63" waitingTime="10.00" speed="28.80" departed="10" arrived="0" entered="28" left="34" laneChangedFrom="0" laneChangedTo="0"/>
        <edge id="53" sampledSeconds="5058.46" traveltime="110.87" overlapTraveltime="111.37" density="3.63" occupancy="1.82" waitingTime="0.00" speed="12.54" departed="11" arrived="0" entered="39" left="39" laneChangedFrom="0" laneChangedTo="0"/>
        <edge id="54" sampledSeconds="1842.27" traveltime="48.42" overlapTraveltime="48.69" density="1.55" occupancy="0.77" waitingTime="0.00" speed="24.58" departed="4" arrived="17" entered="34" left="20" laneChangedFrom="0" laneChangedTo="0"/>
        <edge id="55" sampledSeconds="1576.49" traveltime="160.85" overlapTraveltime="161.72" density="0.79" occupancy="0.40" waitingTime="2.00" speed="12.33" departed="10" arrived="0" entered="1" left="9" laneChangedFrom="0" laneChangedTo="0"/>
        <edge id="56" sampledSeconds="7017.36" traveltime="215.57" overlapTraveltime="215.89" density="1.22" occupancy="0.61" waitingTime="1.00" speed="26.58" departed="9" arrived="9" entered="33" left="15" laneChangedFrom="0" laneChangedTo="0"/>
        <edge id="57" sampledSeconds="2933.21" traveltime="129.72" overlapTraveltime="130.50" density="1.47" occupancy="0.74" waitingTime="6.00" speed="15.29" departed="4" arrived="0" entered="21" left="21" laneChangedFrom="0" laneChangedTo="0"/>
        <edge id="58" sampledSeconds="2744.56" traveltime="110.66" overlapTraveltime="111.07" density="1.97" occupancy="0.99" waitingTime="0.00" speed="12.58" departed="7" arrived="0" entered="18" left="24" laneChangedFrom="0" laneChangedTo="0"/>
        <edge id="59" sampledSeconds="4707.19" traveltime="241.01" overlapTraveltime="241.46" density="1.70" occupancy="0.85" waitingTime="0.00" speed="11.52" departed="5" arrived="10" entered="19" left="3" laneChangedFrom="0" laneChangedTo="0"/>
        <edge id="6" sampledSeconds="1825.85" traveltime="94.96" overlapTraveltime="95.31" density="1.15" occupancy="0.57" waitingTime="0.00" speed="16.74" departed="7" arrived="0" entered="14" left="19" laneChangedFrom="0" laneChangedTo="0"/>
        <edge id="60" sampledSeconds="5329.41" traveltime="215.45" overlapTraveltime="216.04" density="0.93" occupancy="0.46" waitingTime="4.00" speed="26.56" departed="6" arrived="0" entered="22" left="20" laneChangedFrom="0" laneChangedTo="0"/>
        <edge id="61" sampledSeconds="1630.54" traveltime="242.76" overlapTraveltime="243.54" density="0.59" occupancy="0.29" waitingTime="3.00" speed="11.42" departed="4" arrived="0" entered="5" left="5" laneChangedFrom="0" laneChangedTo="0"/>
        <edge id="62" sampledSeconds="4052.13" traveltime="222.63" overlapTraveltime="223.49" density="2.04" occupancy="1.02" waitingTime="10.00" speed="8.90" departed="5" arrived="0" entered="15" left="17" laneChangedFrom="0" laneChangedTo="0"/>
        <edge id="63" sampledSeconds="1838.07" traveltime="218.17" overlapTraveltime="218.96" density="0.72" occupancy="0.36" waitingTime="0.00" speed="11.63" departed="5" arrived="0" entered="4" left="8" laneChangedFrom="0" laneChangedTo="0"/>
        <edge id="64" sampledSeconds="4975.71" traveltime="221.26" overlapTraveltime="221.85" density="2.51" occupancy="1.25" waitingTime="0.00" speed="8.97" departed="4" arrived="8" entered="23" left="8" laneChangedFrom="0" laneChangedTo="0"/>
        <edge id="65" sampledSeconds="3194.14" traveltime="126.84" overlapTraveltime="127.36" density="2.01" occupancy="1.01" waitingTime="0.00" speed="12.50" departed="11" arrived="0" entered="15" left="23" laneChangedFrom="0" laneChangedTo="0"/>
        <edge id="66" sampledSeconds="4409.79" traveltime="127.35" overlapTraveltime="127.73" density="2.46" occupancy="1.23" waitingTime="0.00" speed="14.06" departed="7" arrived="0" entered="30" left="30" laneChangedFrom="0" laneChangedTo="0"/>
        <edge id="67" sampledSeconds="598.34" traveltime="74.15" overlapTraveltime="75.11" density="0.50" occupancy="0.25" waitingTime="2.00" speed="15.92" departed="8" arrived="0" entered="0" left="8" laneChangedFrom="0" laneChangedTo="0"/>
        <edge id="68" sampledSeconds="10736.55" traveltime="254.76" overlapTraveltime="255.41" density="4.22" occupancy="2.11" waitingTime="3.00" speed="9.97" departed="6" arrived="10" entered="46" left="20" laneChangedFrom="0" laneChangedTo="0"/>
        <edge id="69" sampledSeconds="1872.22" traveltime="60.24" overlapTraveltime="60.60" density="1.18" occupancy="0.59" waitingTime="0.00" speed="26.27" departed="8" arrived="0" entered="25" left="30" laneChangedFrom="0" laneChangedTo="0"/>
        <edge id="7" sampledSeconds="3192.26" traveltime="94.86" overlapTraveltime="95.08" density="1.34" occupancy="0.67" waitingTime="0.00" speed="25.19" departed="5" arrived="0" entered="29" left="32" laneChangedFrom="0" laneChangedTo="0"/>
        <edge id="70" sampledSeconds="947.82" traveltime="174.21" overlapTraveltime="174.86" density="0.53" occupancy="0.26" waitingTime="0.00" speed="10.27" departed="6" arrived="0" entered="0" left="5" laneChangedFrom="0" laneChangedTo="0"/>
        <edge id="71" sampledSeconds="944.30" traveltime="129.69" overlapTraveltime="130.35" density="0.79" occupancy="0.40" waitingTime="0.00" speed="9.17" departed="7" arrived="0" entered="1" left="7" laneChangedFrom="0" laneChangedTo="0"/>
        <edge id="72" sampledSeconds="2468.32" traveltime="173.81" overlapTraveltime="174.68" density="1.38" occupancy="0.69" waitingTime="12.00" speed="10.28" departed="6" arrived="0" entered="11" left="11" laneChangedFrom="0" laneChangedTo="0"/>
        <edge id="73" sampledSeconds="1658.96" traveltime="155.11" overlapTraveltime="155.95" density="1.04" occupancy="0.52" waitingTime="5.00" speed="10.23" departed="7" arrived="0" entered="6" left="9" laneChangedFrom="0" laneChangedTo="0"/>
        <edge id="74" sampledSeconds="4497.12" traveltime="100.57" overlapTraveltime="100.90" density="2.82" occupancy="1.41" waitingTime="0.00" speed="15.83" departed="5" arrived="18" entered="48" left="21" laneChangedFrom="0" laneChangedTo="0"/>
        <edge id="75" sampledSeconds="2983.45" traveltime="128.91" overlapTraveltime="129.64" density="1.67" occupancy="0.83" waitingTime="2.00" speed="13.85" departed="8" arrived="0" entered="17" left="21" laneChangedFrom="0" laneChangedTo="0"/>
        <edge id="76" sampledSeconds="1272.24" traveltime="154.89" overlapTraveltime="155.52" density="0.80" occupancy="0.40" waitingTime="0.00" speed="10.26" departed="8" arrived="0" entered="1" left="8" laneChangedFrom="0" laneChangedTo="0"/>
        <edge id="8" sampledSeconds="3690.39" traveltime="95.69" overlapTraveltime="96.38" density="2.32" occupancy="1.16" waitingTime="1.00" speed="16.55" departed="10" arrived="0" entered="29" left="37" laneChangedFrom="0" laneChangedTo="0"/>
        <edge id="9" sampledSeconds="2163.65" traveltime="85.00" overlapTraveltime="85.44" density="1.21" occupancy="0.60" waitingTime="0.00" speed="21.01" departed="6" arrived="0" entered="20" left="24" laneChangedFrom="0" laneChangedTo="0"/>
    </interval>
    <interval begin="1000.00" end="2000.00" id="2">
        <edge id="1" sampledSeconds="13423.77" traveltime="222.01" overlapTraveltime="222.26" density="2.49" occupancy="1.24" waitingTime="0.00" speed="24.29" departed="8" arrived="40" entered="56" left="17" laneChangedFrom="0" laneChangedTo="0"/>
        <edge id="10" sampledSeconds="2565.51" traveltime="231.74" overlapTraveltime="232.52" density="1.07" occupancy="0.54" waitingTime="1.00" speed="10.30" departed="11" arrived="0" entered="0" left="12" laneChangedFrom="0" laneChangedTo="0"/>
        <edge id="11" sampledSeconds="3955.83" traveltime="85.30" overlapTraveltime="85.63" density="2.21" occupancy="1.10" waitingTime="0.00" speed="20.97" departed="12" arrived="0" entered="36" left="43" laneChangedFrom="0" laneChangedTo="0"/>
        <edge id="12" sampledSeconds="6219.53" traveltime="126.35" overlapTraveltime="127.16" density="3.12" occupancy="1.56" waitingTime="3.00" speed="15.69" departed="4" arrived="0" entered="47" left="47" laneChangedFrom="0" laneChangedTo="0"/>
        <edge id="13" sampledSeconds="692.29" traveltime="133.07" overlapTraveltime="133.79" density="0.58" occupancy="0.29" waitingTime="0.00" speed="8.94" departed="6" arrived="0" entered="0" left="4" laneChangedFrom="0" laneChangedTo="0"/>
        <edge id="14" sampledSeconds="6962.56" traveltime="78.06" overlapTraveltime="78.36" density="5.00" occupancy="2.50" waitingTime="0.00" speed="17.83" departed="8" arrived="33" entered="82" left="55" laneChangedFrom="0" laneChangedTo="0"/>
        <edge id="15" sampledSeconds="3929.01" traveltime="125.89" overlapTraveltime="126.29" density="1.97" occupancy="0.99" waitingTime="0.00" speed="15.80" departed="7" arrived="0" entered="23" left="32" laneChangedFrom="0" laneChangedTo="0"/>
        <edge id="16" sampledSeconds="3193.18" traveltime="63.80" overlapTraveltime="64.52" density="2.68" occupancy="1.34" waitingTime="0.00" speed="18.53" departed="3" arrived="0" entered="46" left="50" laneChangedFrom="0" laneChangedTo="0"/>
        <edge id="17" sampledSeconds="5579.14" traveltime="130.24" overlapTraveltime="131.14" density="2.80" occupancy="1.40" waitingTime="22.00" speed="15.23" departed="8" arrived="0" entered="32" left="45" laneChangedFrom="0" laneChangedTo="0"/>
        <edge id="18" sampledSeconds="1877.37" traveltime="49.68" overlapTraveltime="50.47" density="1.57" occupancy="0.79" waitingTime="19.00" speed="23.72" departed="8" arrived="0" entered="31" left="36" laneChangedFrom="0" laneChangedTo="0"/>
        <edge id="19" sampledSeconds="5321.53" traveltime="63.41" overlapTraveltime="63.87" density="4.47" occupancy="2.23" waitingTime="4.00" speed="18.72" departed="3" arrived="0" entered="81" left="83" laneChangedFrom="0" laneChangedTo="0"/>
        <edge id="2" sampledSeconds="663.78" traveltime="59.96" overlapTraveltime="60.42" density="0.48" occupancy="0.24" waitingTime="0.00" speed="23.12" departed="4" arrived="0" entered="7" left="11" laneChangedFrom="0" laneChangedTo="0"/>
        <edge id="20" sampledSeconds="9262.16" traveltime="128.68" overlapTraveltime="129.02" density="4.65" occupancy="2.32" waitingTime="0.00" speed="15.48" departed="12" arrived="40" entered="59" left="34" laneChangedFrom="0" laneChangedTo="0"/>
        <edge id="21" sampledSeconds="1915.93" traveltime="257.58" overlapTraveltime="258.47" density="0.96" occupancy="0.48" waitingTime="0.00" speed="7.72" departed="7" arrived="0" entered="0" left="7" laneChangedFrom="0" laneChangedTo="0"/>
        <edge id="22" sampledSeconds="5020.79" traveltime="119.61" overlapTraveltime="120.18" density="4.22" occupancy="2.11" waitingTime="0.00" speed="9.95" departed="14" arrived="0" entered="28" left="43" laneChangedFrom="0" laneChangedTo="0"/>
        <edge id="23" sampledSeconds="1653.91" traveltime="132.05" overlapTraveltime="132.95" density="1.39" occupancy="0.69" waitingTime="4.00" speed="8.99" departed="3" arrived="0" entered="9" left="13" laneChangedFrom="0" laneChangedTo="0"/>
        <edge id="24" sampledSeconds="3873.31" traveltime="258.91" overlapTraveltime="259.97" density="1.95" occupancy="0.97" waitingTime="16.00" speed="7.68" departed="11" arrived="0" entered="5" left="13" laneChangedFrom="0" laneChangedTo="0"/>
        <edge id="25" sampledSeconds="2877.16" traveltime="228.04" overlapTraveltime="229.14" density="2.42" occupancy="1.21" waitingTime="20.00" speed="5.22" departed="7" arrived="0" entered="5" left="14" laneChangedFrom="0" laneChangedTo="0"/>
        <edge id="26" sampledSeconds="1878.04" traveltime="226.71" overlapTraveltime="227.61" density="1.58" occupancy="0.79" waitingTime="0.00" speed="5.25" departed="8" arrived="0" entered="1" left="8" laneChangedFrom="0" laneChangedTo="0"/>
        <edge id="27" sampledSeconds="3621.70" traveltime="277.69" overlapTraveltime="278.41" density="2.02" occupancy="1.01" waitingTime="0.00" speed="6.45" departed="4" arrived="0" entered="10" left="13" laneChangedFrom="0" laneChangedTo="0"/>
        <edge id="28" sampledSeconds="8010.13" traveltime="345.35" overlapTraveltime="345.95" density="3.10" occupancy="1.55" waitingTime="0.00" speed="7.50" departed="6" arrived="0" entered="14" left="28" laneChangedFrom="0" laneChangedTo="0"/>
        <edge id="29" sampledSeconds="5711.68" traveltime="176.02" overlapTraveltime="177.00" density="2.88" occupancy="1.44" waitingTime="72.00" speed="11.23" departed="10" arrived="0" entered="26" left="30" laneChangedFrom="0" laneChangedTo="0"/>
        <edge id="3" sampledSeconds="13830.88" traveltime="221.66" overlapTraveltime="222.24" density="2.56" occupancy="1.28" waitingTime="4.00" speed="24.29" departed="6" arrived="38" entered="54" left="28" laneChangedFrom="0" laneChangedTo="0"/>
        <edge id="30" sampledSeconds="2981.80" traveltime="283.45" overlapTraveltime="284.42" density="1.29" occupancy="0.64" waitingTime="10.00" speed="8.15" departed="9" arrived="0" entered="0" left="12" laneChangedFrom="0" laneChangedTo="0"/>
        <edge id="31" sampledSeconds="3233.49" traveltime="230.81" overlapTraveltime="231.46" density="1.35" occupancy="0.68" waitingTime="0.00" speed="10.35" departed="9" arrived="0" entered="6" left="13" laneChangedFrom="0" laneChangedTo="0"/>
        <edge id="32" sampledSeconds="3151.53" traveltime="278.27" overlapTraveltime="279.00" density="1.76" occupancy="0.88" waitingTime="0.00" speed="6.44" departed="8" arrived="0" entered="5" left="11" laneChangedFrom="0" laneChangedTo="0"/>
        <edge id="33" sampledSeconds="3651.00" traveltime="114.51" overlapTraveltime="115.26" density="2.30" occupancy="1.15" waitingTime="7.00" speed="13.84" departed="3" arrived="0" entered="28" left="31" laneChangedFrom="0" laneChangedTo="0"/>
        <edge id="34" sampledSeconds="1796.88" traveltime="278.90" overlapTraveltime="279.55" density="0.69" occupancy="0.35" waitingTime="0.00" speed="9.28" departed="4" arrived="0" entered="4" left="6" laneChangedFrom="0" laneChangedTo="0"/>
        <edge id="35" sampledSeconds="4360.92" traveltime="93.38" overlapTraveltime="93.60" density="1.82" occupancy="0.91" waitingTime="0.00" speed="25.59" departed="5" arrived="0" entered="39" left="48" laneChangedFrom="0" laneChangedTo="0"/>
        <edge id="36" sampledSeconds="1228.16" traveltime="115.40" overlapTraveltime="116.03" density="0.77" occupancy="0.39" waitingTime="0.00" speed="13.75" departed="9" arrived="0" entered="3" left="8" laneChangedFrom="0" laneChangedTo="0"/>
        <edge id="37" sampledSeconds="13159.71" traveltime="188.91" overlapTraveltime="189.12" density="2.44" occupancy="1.22" waitingTime="0.00" speed="28.54" departed="5" arrived="46" entered="63" left="25" laneChangedFrom="0" laneChangedTo="0"/>
        <edge id="38" sampledSeconds="8984.99" traveltime="188.86" overlapTraveltime="189.38" density="1.67" occupancy="0.83" waitingTime="2.00" speed="28.50" departed="3" arrived="0" entered="45" left="46" laneChangedFrom="0" laneChangedTo="0"/>
        <edge id="39" sampledSeconds="3348.34" traveltime="100.46" overlapTraveltime="101.03" density="2.10" occupancy="1.05" waitingTime="3.00" speed="15.81" departed="5" arrived="0" entered="28" left="33" laneChangedFrom="0" laneChangedTo="0"/>
        <edge id="4" sampledSeconds="1752.95" traveltime="78.71" overlapTraveltime="79.15" density="1.26" occupancy="0.63" waitingTime="0.00" speed="17.65" departed="5" arrived="0" entered="18" left="21" laneChangedFrom="0" laneChangedTo="0"/>
        <edge id="40" sampledSeconds="2761.63" traveltime="278.56" overlapTraveltime="279.28" density="1.07" occupancy="0.53" waitingTime="0.00" speed="9.29" departed="5" arrived="0" entered="6" left="10" laneChangedFrom="0" laneChangedTo="0"/>
        <edge id="41" sampledSeconds="4805.67" traveltime="197.96" overlapTraveltime="198.76" density="2.68" occupancy="1.34" waitingTime="9.00" speed="9.03" departed="10" arrived="0" entered="13" left="23" laneChangedFrom="0" laneChangedTo="0"/>
        <edge id="42" sampledSeconds="1510.91" traveltime="129.41" overlapTraveltime="130.10" density="1.27" occupancy="0.63" waitingTime="0.00" speed="9.19" departed="9" arrived="0" entered="1" left="12" laneChangedFrom="0" laneChangedTo="0"/>
        <edge id="43" sampledSeconds="2704.57" traveltime="347.27" overlapTraveltime="347.96" density="1.05" occupancy="0.52" waitingTime="0.00" speed="7.45" departed="8" arrived="0" entered="0" left="8" laneChangedFrom="0" laneChangedTo="0"/>
        <edge id="44" sampledSeconds="1468.11" traveltime="198.01" overlapTraveltime="198.69" density="0.82" occupancy="0.41" waitingTime="0.00" speed="9.04" departed="6" arrived="0" entered="0" left="7" laneChangedFrom="0" laneChangedTo="0"/>
        <edge id="45" sampledSeconds="6037.62" traveltime="127.93" overlapTraveltime="128.34" density="3.03" occupancy="1.52" waitingTime="2.00" speed="15.55" departed="3" arrived="0" entered="46" left="46" laneChangedFrom="0" laneChangedTo="0"/>