<?xml version="1.0" encoding="UTF-8"?>

<!-- generated on 02/17/17 18:10:40 by SUMO Version 0.27.1
<?xml version="1.0" encoding="UTF-8"?>

<configuration xmlns:xsi="http://www.w3.org/2001/XMLSchema-instance" xsi:noNamespaceSchemaLocation="http://sumo.dlr.de/xsd/sumoConfiguration.xsd">

    <input>
        <net-file value="SF_sumo.net.xml"/>
        <route-files value="route.rou.xml"/>
        <additional-files value="additional.xml"/>
    </input>

    <output>
        <summary-output value="summary.xml"/>
    </output>

    <routing>
        <device.rerouting.threads value="6"/>
    </routing>

    <report>
        <log value="report.xml"/>
    </report>

</configuration>
-->

<meandata xmlns:xsi="http://www.w3.org/2001/XMLSchema-instance" xsi:noNamespaceSchemaLocation="http://sumo.dlr.de/xsd/meandata_file.xsd">
    <interval begin="0.00" end="3600.00" id="1">
        <edge id="10_1" sampledSeconds="668.13" traveltime="33.68" density="0.42" occupancy="0.10" waitingTime="0.00" speed="13.12" departed="1" arrived="0" entered="20" left="20" laneChangedFrom="12" laneChangedTo="12"/>
        <edge id="10_2" sampledSeconds="743.21" traveltime="33.96" density="0.46" occupancy="0.11" waitingTime="0.00" speed="13.25" departed="7" arrived="1" entered="20" left="25" laneChangedFrom="5" laneChangedTo="5"/>
        <edge id="10_3" sampledSeconds="632.90" traveltime="33.90" density="0.39" occupancy="0.10" waitingTime="0.00" speed="13.27" departed="2" arrived="8" entered="25" left="19" laneChangedFrom="1" laneChangedTo="1"/>
        <edge id="10_4" sampledSeconds="370.32" traveltime="34.03" density="0.23" occupancy="0.06" waitingTime="0.00" speed="13.23" departed="2" arrived="8" entered="19" left="11" laneChangedFrom="1" laneChangedTo="1"/>
        <edge id="10_5" sampledSeconds="376.36" traveltime="33.83" density="0.24" occupancy="0.06" waitingTime="0.00" speed="13.06" departed="0" arrived="0" entered="11" left="11" laneChangedFrom="7" laneChangedTo="7"/>
        <edge id="11_1" sampledSeconds="468.14" traveltime="36.08" density="0.28" occupancy="0.07" waitingTime="0.00" speed="13.09" departed="2" arrived="0" entered="12" left="14" laneChangedFrom="13" laneChangedTo="13"/>
        <edge id="11_2" sampledSeconds="538.89" traveltime="36.17" density="0.31" occupancy="0.08" waitingTime="0.00" speed="13.28" departed="4" arrived="0" entered="14" left="16" laneChangedFrom="3" laneChangedTo="3"/>
        <edge id="11_3" sampledSeconds="493.48" traveltime="36.29" density="0.29" occupancy="0.07" waitingTime="0.00" speed="13.23" departed="0" arrived="2" entered="16" left="13" laneChangedFrom="1" laneChangedTo="1"/>
        <edge id="11_4" sampledSeconds="330.61" traveltime="36.21" density="0.19" occupancy="0.05" waitingTime="0.00" speed="13.26" departed="0" arrived="4" entered="13" left="9" laneChangedFrom="0" laneChangedTo="0"/>
        <edge id="11_5" sampledSeconds="311.63" traveltime="36.42" density="0.18" occupancy="0.05" waitingTime="0.00" speed="12.96" departed="0" arrived="0" entered="9" left="7" laneChangedFrom="9" laneChangedTo="9"/>
        <edge id="12_1" sampledSeconds="65.91" traveltime="32.57" density="0.04" occupancy="0.01" waitingTime="0.00" speed="13.07" departed="0" arrived="0" entered="2" left="2" laneChangedFrom="2" laneChangedTo="2"/>
        <edge id="12_2" sampledSeconds="33.84" traveltime="32.58" density="0.02" occupancy="0.01" waitingTime="0.00" speed="13.21" departed="0" arrived="1" entered="2" left="1" laneChangedFrom="0" laneChangedTo="0"/>
        <edge id="12_3" sampledSeconds="0.99" traveltime="31.56" density="0.00" occupancy="0.00" waitingTime="0.00" speed="13.63" departed="0" arrived="1" entered="1" left="0" laneChangedFrom="0" laneChangedTo="0"/>
        <edge id="12_4" sampledSeconds="0.00" departed="0" arrived="0" entered="0" left="0" laneChangedFrom="0" laneChangedTo="0"/>
        <edge id="12_5" sampledSeconds="0.00" departed="0" arrived="0" entered="0" left="0" laneChangedFrom="0" laneChangedTo="0"/>
        <edge id="13_1" sampledSeconds="1119.56" traveltime="35.02" density="0.67" occupancy="0.17" waitingTime="0.00" speed="13.18" departed="7" arrived="0" entered="30" left="34" laneChangedFrom="19" laneChangedTo="19"/>
        <edge id="13_2" sampledSeconds="1298.97" traveltime="35.45" density="0.77" occupancy="0.19" waitingTime="0.00" speed="13.25" departed="5" arrived="0" entered="34" left="38" laneChangedFrom="3" laneChangedTo="3"/>
        <edge id="13_3" sampledSeconds="1487.31" traveltime="34.59" density="0.91" occupancy="0.23" waitingTime="0.00" speed="13.15" departed="16" arrived="2" entered="38" left="47" laneChangedFrom="23" laneChangedTo="23"/>
        <edge id="14_1" sampledSeconds="518.82" traveltime="35.21" density="0.31" occupancy="0.08" waitingTime="0.00" speed="13.20" departed="15" arrived="3" entered="11" left="23" laneChangedFrom="10" laneChangedTo="10"/>
        <edge id="14_2" sampledSeconds="752.24" traveltime="35.42" density="0.45" occupancy="0.11" waitingTime="0.00" speed="13.25" departed="5" arrived="4" entered="23" left="22" laneChangedFrom="6" laneChangedTo="6"/>
        <edge id="14_3" sampledSeconds="652.14" traveltime="35.43" density="0.39" occupancy="0.10" waitingTime="0.00" speed="13.25" departed="1" arrived="4" entered="22" left="18" laneChangedFrom="1" laneChangedTo="1"/>
        <edge id="14_4" sampledSeconds="589.53" traveltime="35.43" density="0.35" occupancy="0.09" waitingTime="0.00" speed="13.24" departed="0" arrived="0" entered="18" left="15" laneChangedFrom="0" laneChangedTo="0"/>
        <edge id="14_5" sampledSeconds="536.13" traveltime="35.37" density="0.32" occupancy="0.08" waitingTime="0.00" speed="13.27" departed="0" arrived="0" entered="15" left="15" laneChangedFrom="0" laneChangedTo="0"/>
        <edge id="14_6" sampledSeconds="516.15" traveltime="35.50" density="0.31" occupancy="0.08" waitingTime="0.00" speed="13.22" departed="0" arrived="0" entered="15" left="14" laneChangedFrom="0" laneChangedTo="0"/>
        <edge id="14_7" sampledSeconds="940.35" traveltime="36.34" density="0.57" occupancy="0.14" waitingTime="0.00" speed="12.63" departed="23" arrived="0" entered="14" left="35" laneChangedFrom="14" laneChangedTo="14"/>
        <edge id="15_1" sampledSeconds="401.90" traveltime="31.29" density="0.27" occupancy="0.07" waitingTime="0.00" speed="13.24" departed="0" arrived="1" entered="14" left="12" laneChangedFrom="3" laneChangedTo="3"/>
        <edge id="15_2" sampledSeconds="329.25" traveltime="32.49" density="0.21" occupancy="0.05" waitingTime="0.00" speed="13.24" departed="0" arrived="2" entered="12" left="10" laneChangedFrom="0" laneChangedTo="0"/>
        <edge id="15_3" sampledSeconds="294.81" traveltime="32.34" density="0.19" occupancy="0.05" waitingTime="0.00" speed="13.30" departed="0" arrived="1" entered="10" left="9" laneChangedFrom="0" laneChangedTo="0"/>
        <edge id="15_4" sampledSeconds="295.29" traveltime="32.43" density="0.19" occupancy="0.05" waitingTime="0.00" speed="13.26" departed="0" arrived="0" entered="9" left="9" laneChangedFrom="0" laneChangedTo="0"/>
        <edge id="15_5" sampledSeconds="299.36" traveltime="32.88" density="0.20" occupancy="0.05" waitingTime="0.00" speed="12.95" departed="0" arrived="0" entered="9" left="9" laneChangedFrom="10" laneChangedTo="10"/>
        <edge id="16_1" sampledSeconds="550.65" traveltime="28.78" density="0.40" occupancy="0.10" waitingTime="0.00" speed="13.13" departed="0" arrived="0" entered="19" left="18" laneChangedFrom="6" laneChangedTo="6"/>
        <edge id="16_2" sampledSeconds="541.60" traveltime="29.71" density="0.38" occupancy="0.10" waitingTime="0.00" speed="13.26" departed="0" arrived="0" entered="18" left="18" laneChangedFrom="0" laneChangedTo="0"/>
        <edge id="16_3" sampledSeconds="512.67" traveltime="29.76" density="0.36" occupancy="0.09" waitingTime="0.00" speed="13.24" departed="0" arrived="1" entered="18" left="17" laneChangedFrom="0" laneChangedTo="0"/>
        <edge id="16_4" sampledSeconds="431.06" traveltime="29.53" density="0.31" occupancy="0.08" waitingTime="0.00" speed="13.03" departed="0" arrived="0" entered="17" left="13" laneChangedFrom="8" laneChangedTo="8"/>
        <edge id="17_1" sampledSeconds="1672.01" traveltime="35.77" density="0.98" occupancy="0.25" waitingTime="0.00" speed="13.24" departed="0" arrived="2" entered="57" left="40" laneChangedFrom="28" laneChangedTo="28"/>
        <edge id="17_2" sampledSeconds="1446.70" traveltime="36.72" density="0.83" occupancy="0.21" waitingTime="0.00" speed="13.23" departed="3" arrived="0" entered="40" left="36" laneChangedFrom="3" laneChangedTo="3"/>
        <edge id="17_3" sampledSeconds="1371.22" traveltime="38.72" density="0.80" occupancy="0.20" waitingTime="44.00" speed="12.31" departed="0" arrived="0" entered="36" left="34" laneChangedFrom="25" laneChangedTo="25"/>
        <edge id="18_1" sampledSeconds="1306.32" traveltime="21.25" density="0.79" occupancy="0.13" waitingTime="0.00" speed="21.56" departed="0" arrived="0" entered="61" left="60" laneChangedFrom="104" laneChangedTo="104"/>
        <edge id="18_2" sampledSeconds="1201.95" traveltime="19.21" density="0.71" occupancy="0.12" waitingTime="0.00" speed="24.35" departed="5" arrived="0" entered="60" left="61" laneChangedFrom="2" laneChangedTo="2"/>
        <edge id="18_3" sampledSeconds="1202.59" traveltime="19.22" density="0.71" occupancy="0.12" waitingTime="0.00" speed="24.33" departed="7" arrived="0" entered="61" left="63" laneChangedFrom="3" laneChangedTo="3"/>
        <edge id="18_4" sampledSeconds="1303.76" traveltime="19.61" density="0.79" occupancy="0.13" waitingTime="0.00" speed="23.45" departed="4" arrived="0" entered="63" left="67" laneChangedFrom="2" laneChangedTo="2"/>
        <edge id="19_1" sampledSeconds="227.26" traveltime="29.16" density="0.16" occupancy="0.04" waitingTime="0.00" speed="13.20" departed="1" arrived="3" entered="10" left="8" laneChangedFrom="3" laneChangedTo="3"/>
        <edge id="19_2" sampledSeconds="189.07" traveltime="29.67" density="0.13" occupancy="0.03" waitingTime="0.00" speed="13.28" departed="1" arrived="1" entered="8" left="7" laneChangedFrom="0" laneChangedTo="0"/>
        <edge id="19_3" sampledSeconds="207.23" traveltime="29.69" density="0.15" occupancy="0.04" waitingTime="0.00" speed="13.27" departed="0" arrived="0" entered="7" left="6" laneChangedFrom="0" laneChangedTo="0"/>
        <edge id="19_4" sampledSeconds="241.85" traveltime="29.74" density="0.18" occupancy="0.04" waitingTime="0.00" speed="12.71" departed="7" arrived="0" entered="6" left="12" laneChangedFrom="2" laneChangedTo="2"/>
        <edge id="1_1" sampledSeconds="435.92" traveltime="22.57" density="0.25" occupancy="0.04" waitingTime="0.00" speed="21.07" departed="0" arrived="0" entered="20" left="18" laneChangedFrom="38" laneChangedTo="38"/>
        <edge id="1_10" sampledSeconds="142.55" traveltime="20.15" density="0.08" occupancy="0.01" waitingTime="0.00" speed="23.80" departed="0" arrived="0" entered="7" left="7" laneChangedFrom="0" laneChangedTo="0"/>
        <edge id="1_2" sampledSeconds="325.87" traveltime="19.96" density="0.19" occupancy="0.03" waitingTime="0.00" speed="24.35" departed="0" arrived="0" entered="18" left="15" laneChangedFrom="0" laneChangedTo="0"/>
        <edge id="1_3" sampledSeconds="260.53" traveltime="19.96" density="0.15" occupancy="0.02" waitingTime="0.00" speed="24.36" departed="0" arrived="0" entered="15" left="12" laneChangedFrom="0" laneChangedTo="0"/>
        <edge id="1_4" sampledSeconds="241.82" traveltime="19.95" density="0.14" occupancy="0.02" waitingTime="0.00" speed="24.37" departed="0" arrived="0" entered="12" left="12" laneChangedFrom="0" laneChangedTo="0"/>
        <edge id="1_5" sampledSeconds="241.72" traveltime="19.94" density="0.14" occupancy="0.02" waitingTime="0.00" speed="24.39" departed="0" arrived="0" entered="12" left="12" laneChangedFrom="0" laneChangedTo="0"/>
        <edge id="1_6" sampledSeconds="242.25" traveltime="19.98" density="0.14" occupancy="0.02" waitingTime="0.00" speed="24.33" departed="0" arrived="0" entered="12" left="12" laneChangedFrom="0" laneChangedTo="0"/>
        <edge id="1_7" sampledSeconds="209.85" traveltime="19.98" density="0.12" occupancy="0.02" waitingTime="0.00" speed="24.34" departed="0" arrived="0" entered="12" left="9" laneChangedFrom="0" laneChangedTo="0"/>
        <edge id="1_8" sampledSeconds="164.33" traveltime="19.97" density="0.09" occupancy="0.02" waitingTime="0.00" speed="24.34" departed="0" arrived="0" entered="9" left="8" laneChangedFrom="0" laneChangedTo="0"/>
        <edge id="1_9" sampledSeconds="156.83" traveltime="19.95" density="0.09" occupancy="0.01" waitingTime="0.00" speed="24.37" departed="0" arrived="0" entered="8" left="7" laneChangedFrom="0" laneChangedTo="0"/>
        <edge id="20_1" sampledSeconds="473.44" traveltime="36.18" density="0.28" occupancy="0.07" waitingTime="0.00" speed="13.18" departed="4" arrived="4" entered="16" left="14" laneChangedFrom="9" laneChangedTo="9"/>
        <edge id="20_2" sampledSeconds="318.87" traveltime="36.62" density="0.18" occupancy="0.05" waitingTime="0.00" speed="13.27" departed="4" arrived="8" entered="14" left="10" laneChangedFrom="1" laneChangedTo="1"/>
        <edge id="20_3" sampledSeconds="359.48" traveltime="36.91" density="0.21" occupancy="0.05" waitingTime="7.00" speed="12.83" departed="3" arrived="0" entered="10" left="10" laneChangedFrom="2" laneChangedTo="2"/>
        <edge id="21_1" sampledSeconds="596.34" traveltime="29.50" density="0.43" occupancy="0.11" waitingTime="0.00" speed="13.11" departed="0" arrived="1" entered="22" left="19" laneChangedFrom="11" laneChangedTo="11"/>
        <edge id="21_2" sampledSeconds="409.43" traveltime="30.27" density="0.28" occupancy="0.07" waitingTime="0.00" speed="13.25" departed="0" arrived="5" entered="19" left="13" laneChangedFrom="0" laneChangedTo="0"/>
        <edge id="21_3" sampledSeconds="382.75" traveltime="30.29" density="0.27" occupancy="0.07" waitingTime="0.00" speed="13.24" departed="0" arrived="0" entered="13" left="12" laneChangedFrom="0" laneChangedTo="0"/>
        <edge id="21_4" sampledSeconds="329.43" traveltime="30.26" density="0.23" occupancy="0.06" waitingTime="0.00" speed="13.26" departed="0" arrived="0" entered="12" left="10" laneChangedFrom="0" laneChangedTo="0"/>
        <edge id="21_5" sampledSeconds="283.33" traveltime="31.70" density="0.20" occupancy="0.05" waitingTime="2.00" speed="12.19" departed="1" arrived="0" entered="10" left="9" laneChangedFrom="7" laneChangedTo="7"/>
        <edge id="22_1" sampledSeconds="875.56" traveltime="31.29" density="0.59" occupancy="0.15" waitingTime="0.00" speed="13.10" departed="0" arrived="1" entered="31" left="26" laneChangedFrom="25" laneChangedTo="25"/>
        <edge id="22_2" sampledSeconds="755.70" traveltime="31.99" density="0.49" occupancy="0.12" waitingTime="0.00" speed="13.26" departed="3" arrived="4" entered="26" left="23" laneChangedFrom="1" laneChangedTo="1"/>
        <edge id="22_3" sampledSeconds="856.99" traveltime="32.03" density="0.56" occupancy="0.14" waitingTime="0.00" speed="13.24" departed="13" arrived="4" entered="23" left="31" laneChangedFrom="3" laneChangedTo="3"/>
        <edge id="22_4" sampledSeconds="835.82" traveltime="31.71" density="0.56" occupancy="0.14" waitingTime="0.00" speed="13.13" departed="7" arrived="8" entered="31" left="30" laneChangedFrom="7" laneChangedTo="7"/>
        <edge id="23_1" sampledSeconds="437.99" traveltime="34.41" density="0.27" occupancy="0.07" waitingTime="0.00" speed="13.22" departed="0" arrived="0" entered="13" left="12" laneChangedFrom="1" laneChangedTo="1"/>
        <edge id="23_2" sampledSeconds="395.38" traveltime="35.36" density="0.23" occupancy="0.06" waitingTime="0.00" speed="13.28" departed="4" arrived="0" entered="12" left="12" laneChangedFrom="3" laneChangedTo="3"/>
        <edge id="23_3" sampledSeconds="483.66" traveltime="36.69" density="0.29" occupancy="0.07" waitingTime="0.00" speed="12.58" departed="4" arrived="0" entered="12" left="14" laneChangedFrom="10" laneChangedTo="10"/>
        <edge id="24_1" sampledSeconds="645.03" traveltime="29.30" density="0.46" occupancy="0.12" waitingTime="0.00" speed="13.19" departed="4" arrived="8" entered="28" left="23" laneChangedFrom="11" laneChangedTo="11"/>
        <edge id="24_2" sampledSeconds="517.98" traveltime="30.28" density="0.36" occupancy="0.09" waitingTime="0.00" speed="13.24" departed="0" arrived="6" entered="23" left="15" laneChangedFrom="1" laneChangedTo="1"/>
        <edge id="24_3" sampledSeconds="436.87" traveltime="30.31" density="0.30" occupancy="0.08" waitingTime="0.00" speed="13.23" departed="8" arrived="4" entered="15" left="17" laneChangedFrom="4" laneChangedTo="4"/>
        <edge id="24_4" sampledSeconds="447.47" traveltime="30.36" density="0.31" occupancy="0.08" waitingTime="0.00" speed="13.21" departed="2" arrived="2" entered="17" left="16" laneChangedFrom="1" laneChangedTo="1"/>
        <edge id="24_5" sampledSeconds="413.23" traveltime="30.58" density="0.30" occupancy="0.07" waitingTime="0.00" speed="12.65" departed="0" arrived="2" entered="16" left="13" laneChangedFrom="11" laneChangedTo="11"/>
        <edge id="25_1" sampledSeconds="1136.36" traveltime="26.94" density="0.89" occupancy="0.22" waitingTime="0.00" speed="13.21" departed="5" arrived="1" entered="41" left="42" laneChangedFrom="11" laneChangedTo="11"/>
        <edge id="25_2" sampledSeconds="1108.25" traveltime="28.56" density="0.88" occupancy="0.22" waitingTime="42.00" speed="12.31" departed="2" arrived="3" entered="42" left="37" laneChangedFrom="25" laneChangedTo="25"/>
        <edge id="26_1" sampledSeconds="693.31" traveltime="26.78" density="0.55" occupancy="0.14" waitingTime="0.00" speed="13.13" departed="0" arrived="1" entered="29" left="25" laneChangedFrom="16" laneChangedTo="16"/>
        <edge id="26_2" sampledSeconds="675.19" traveltime="27.22" density="0.53" occupancy="0.13" waitingTime="3.00" speed="13.07" departed="3" arrived="2" entered="25" left="26" laneChangedFrom="3" laneChangedTo="3"/>
        <edge id="27_1" sampledSeconds="1127.99" traveltime="35.68" density="0.67" occupancy="0.17" waitingTime="0.00" speed="13.14" departed="4" arrived="5" entered="34" left="31" laneChangedFrom="20" laneChangedTo="20"/>
        <edge id="27_2" sampledSeconds="1127.58" traveltime="36.02" density="0.66" occupancy="0.16" waitingTime="0.00" speed="13.25" departed="8" arrived="3" entered="31" left="33" laneChangedFrom="8" laneChangedTo="8"/>
        <edge id="27_3" sampledSeconds="1269.36" traveltime="35.99" density="0.74" occupancy="0.18" waitingTime="0.00" speed="13.25" departed="9" arrived="1" entered="33" left="39" laneChangedFrom="6" laneChangedTo="6"/>
        <edge id="27_4" sampledSeconds="1313.57" traveltime="35.99" density="0.76" occupancy="0.19" waitingTime="0.00" speed="13.25" departed="6" arrived="1" entered="39" left="38" laneChangedFrom="7" laneChangedTo="7"/>
        <edge id="27_5" sampledSeconds="1290.34" traveltime="37.08" density="0.76" occupancy="0.19" waitingTime="1.00" speed="12.64" departed="2" arrived="0" entered="38" left="33" laneChangedFrom="30" laneChangedTo="30"/>
        <edge id="28_1" sampledSeconds="649.42" traveltime="32.74" density="0.42" occupancy="0.11" waitingTime="0.00" speed="13.03" departed="1" arrived="3" entered="23" left="19" laneChangedFrom="9" laneChangedTo="9"/>
        <edge id="28_2" sampledSeconds="814.23" traveltime="32.95" density="0.52" occupancy="0.13" waitingTime="0.00" speed="13.25" departed="13" arrived="2" entered="19" left="29" laneChangedFrom="6" laneChangedTo="6"/>
        <edge id="28_3" sampledSeconds="1030.74" traveltime="32.92" density="0.66" occupancy="0.16" waitingTime="0.00" speed="13.26" departed="9" arrived="2" entered="29" left="33" laneChangedFrom="10" laneChangedTo="10"/>
        <edge id="28_4" sampledSeconds="1048.94" traveltime="32.75" density="0.68" occupancy="0.17" waitingTime="0.00" speed="13.07" departed="2" arrived="2" entered="33" left="32" laneChangedFrom="13" laneChangedTo="13"/>
        <edge id="29_1" sampledSeconds="1395.41" traveltime="28.63" density="1.03" occupancy="0.26" waitingTime="0.00" speed="13.17" departed="2" arrived="8" entered="56" left="48" laneChangedFrom="35" laneChangedTo="35"/>
        <edge id="29_2" sampledSeconds="1391.42" traveltime="31.21" density="0.94" occupancy="0.23" waitingTime="0.00" speed="13.24" departed="2" arrived="4" entered="48" left="43" laneChangedFrom="2" laneChangedTo="2"/>
        <edge id="29_3" sampledSeconds="808.62" traveltime="31.18" density="0.54" occupancy="0.14" waitingTime="0.00" speed="13.26" departed="1" arrived="18" entered="43" left="25" laneChangedFrom="1" laneChangedTo="1"/>
        <edge id="29_4" sampledSeconds="603.97" traveltime="32.32" density="0.42" occupancy="0.10" waitingTime="9.00" speed="12.50" departed="0" arrived="5" entered="25" left="18" laneChangedFrom="14" laneChangedTo="14"/>
        <edge id="2_1" sampledSeconds="19.84" traveltime="19.64" density="0.01" occupancy="0.00" waitingTime="0.00" speed="24.46" departed="0" arrived="0" entered="1" left="1" laneChangedFrom="0" laneChangedTo="0"/>
        <edge id="2_2" sampledSeconds="7.93" traveltime="20.10" density="0.00" occupancy="0.00" waitingTime="0.00" speed="24.43" departed="0" arrived="0" entered="1" left="0" laneChangedFrom="0" laneChangedTo="0"/>
        <edge id="2_3" sampledSeconds="0.00" departed="0" arrived="0" entered="0" left="0" laneChangedFrom="0" laneChangedTo="0"/>
        <edge id="2_4" sampledSeconds="0.00" departed="0" arrived="0" entered="0" left="0" laneChangedFrom="0" laneChangedTo="0"/>
        <edge id="2_5" sampledSeconds="40.91" traveltime="20.18" density="0.02" occupancy="0.00" waitingTime="0.00" speed="24.33" departed="4" arrived="0" entered="0" left="4" laneChangedFrom="0" laneChangedTo="0"/>
        <edge id="2_6" sampledSeconds="202.44" traveltime="20.16" density="0.11" occupancy="0.02" waitingTime="0.00" speed="24.35" departed="9" arrived="0" entered="4" left="13" laneChangedFrom="1" laneChangedTo="1"/>
        <edge id="2_7" sampledSeconds="288.23" traveltime="20.14" density="0.16" occupancy="0.03" waitingTime="0.00" speed="24.38" departed="3" arrived="0" entered="13" left="15" laneChangedFrom="0" laneChangedTo="0"/>
        <edge id="2_8" sampledSeconds="327.55" traveltime="20.15" density="0.19" occupancy="0.03" waitingTime="0.00" speed="24.37" departed="2" arrived="0" entered="15" left="17" laneChangedFrom="0" laneChangedTo="0"/>
        <edge id="2_9" sampledSeconds="564.90" traveltime="21.98" density="0.32" occupancy="0.05" waitingTime="0.00" speed="22.23" departed="17" arrived="0" entered="17" left="33" laneChangedFrom="1" laneChangedTo="1"/>
        <edge id="30_1" sampledSeconds="1238.51" traveltime="28.78" density="0.90" occupancy="0.23" waitingTime="0.00" speed="13.23" departed="1" arrived="1" entered="43" left="42" laneChangedFrom="28" laneChangedTo="28"/>
        <edge id="30_2" sampledSeconds="1024.38" traveltime="31.51" density="0.68" occupancy="0.17" waitingTime="0.00" speed="13.24" departed="3" arrived="11" entered="42" left="33" laneChangedFrom="4" laneChangedTo="4"/>
        <edge id="30_3" sampledSeconds="953.17" traveltime="31.43" density="0.63" occupancy="0.16" waitingTime="0.00" speed="13.27" departed="12" arrived="8" entered="33" left="36" laneChangedFrom="8" laneChangedTo="8"/>
        <edge id="30_4" sampledSeconds="855.56" traveltime="32.33" density="0.58" occupancy="0.15" waitingTime="3.00" speed="12.61" departed="0" arrived="10" entered="36" left="26" laneChangedFrom="18" laneChangedTo="18"/>
        <edge id="31_1" sampledSeconds="484.80" traveltime="33.54" density="0.30" occupancy="0.08" waitingTime="0.00" speed="13.17" departed="5" arrived="8" entered="21" left="17" laneChangedFrom="13" laneChangedTo="13"/>
        <edge id="31_2" sampledSeconds="660.02" traveltime="34.01" density="0.41" occupancy="0.10" waitingTime="0.00" speed="13.23" departed="13" arrived="3" entered="17" left="25" laneChangedFrom="6" laneChangedTo="6"/>
        <edge id="31_3" sampledSeconds="781.52" traveltime="33.96" density="0.48" occupancy="0.12" waitingTime="0.00" speed="13.25" departed="5" arrived="5" entered="25" left="24" laneChangedFrom="1" laneChangedTo="1"/>
        <edge id="31_4" sampledSeconds="765.59" traveltime="33.99" density="0.47" occupancy="0.12" waitingTime="0.00" speed="13.24" departed="2" arrived="2" entered="24" left="22" laneChangedFrom="3" laneChangedTo="3"/>
        <edge id="31_5" sampledSeconds="788.37" traveltime="34.80" density="0.50" occupancy="0.12" waitingTime="1.00" speed="12.70" departed="1" arrived="0" entered="22" left="22" laneChangedFrom="11" laneChangedTo="11"/>
        <edge id="32_1" sampledSeconds="1897.25" traveltime="35.72" density="1.12" occupancy="0.28" waitingTime="0.00" speed="13.12" departed="5" arrived="6" entered="58" left="54" laneChangedFrom="27" laneChangedTo="27"/>
        <edge id="32_2" sampledSeconds="1873.76" traveltime="36.00" density="1.09" occupancy="0.27" waitingTime="0.00" speed="13.25" departed="15" arrived="6" entered="54" left="56" laneChangedFrom="13" laneChangedTo="13"/>
        <edge id="32_3" sampledSeconds="2115.14" traveltime="36.00" density="1.23" occupancy="0.31" waitingTime="0.00" speed="13.25" departed="16" arrived="3" entered="56" left="65" laneChangedFrom="10" laneChangedTo="10"/>
        <edge id="32_4" sampledSeconds="2328.17" traveltime="36.02" density="1.36" occupancy="0.34" waitingTime="0.00" speed="13.25" departed="14" arrived="4" entered="65" left="70" laneChangedFrom="8" laneChangedTo="8"/>
        <edge id="32_5" sampledSeconds="2454.16" traveltime="38.19" density="1.45" occupancy="0.36" waitingTime="60.00" speed="12.28" departed="8" arrived="6" entered="70" left="62" laneChangedFrom="41" laneChangedTo="41"/>
        <edge id="33_1" sampledSeconds="172.65" traveltime="29.39" density="0.12" occupancy="0.03" waitingTime="0.00" speed="13.13" departed="0" arrived="2" entered="8" left="5" laneChangedFrom="4" laneChangedTo="4"/>
        <edge id="33_2" sampledSeconds="120.93" traveltime="29.79" density="0.09" occupancy="0.02" waitingTime="0.00" speed="13.23" departed="0" arrived="1" entered="5" left="4" laneChangedFrom="0" laneChangedTo="0"/>
        <edge id="33_3" sampledSeconds="120.08" traveltime="29.64" density="0.08" occupancy="0.02" waitingTime="0.00" speed="13.29" departed="0" arrived="0" entered="4" left="4" laneChangedFrom="0" laneChangedTo="0"/>
        <edge id="33_4" sampledSeconds="122.23" traveltime="30.16" density="0.09" occupancy="0.02" waitingTime="0.00" speed="12.66" departed="0" arrived="0" entered="4" left="4" laneChangedFrom="3" laneChangedTo="3"/>
        <edge id="34_1" sampledSeconds="643.16" traveltime="30.49" density="0.45" occupancy="0.11" waitingTime="0.00" speed="13.15" departed="3" arrived="0" entered="20" left="21" laneChangedFrom="12" laneChangedTo="12"/>
        <edge id="34_2" sampledSeconds="673.10" traveltime="30.92" density="0.46" occupancy="0.11" waitingTime="0.00" speed="13.23" departed="2" arrived="1" entered="21" left="21" laneChangedFrom="2" laneChangedTo="2"/>
        <edge id="34_3" sampledSeconds="537.30" traveltime="30.81" density="0.36" occupancy="0.09" waitingTime="0.00" speed="13.28" departed="3" arrived="5" entered="21" left="19" laneChangedFrom="2" laneChangedTo="2"/>
        <edge id="34_4" sampledSeconds="511.23" traveltime="31.11" density="0.35" occupancy="0.09" waitingTime="0.00" speed="12.89" departed="3" arrived="4" entered="19" left="18" laneChangedFrom="14" laneChangedTo="14"/>
        <edge id="35_1" sampledSeconds="371.96" traveltime="20.40" density="0.23" occupancy="0.04" waitingTime="0.00" speed="22.15" departed="3" arrived="0" entered="17" left="20" laneChangedFrom="20" laneChangedTo="20"/>
        <edge id="35_2" sampledSeconds="334.83" traveltime="18.96" density="0.20" occupancy="0.03" waitingTime="0.00" speed="24.33" departed="0" arrived="0" entered="20" left="16" laneChangedFrom="2" laneChangedTo="2"/>
        <edge id="35_3" sampledSeconds="303.34" traveltime="18.95" density="0.18" occupancy="0.03" waitingTime="0.00" speed="24.34" departed="0" arrived="0" entered="16" left="15" laneChangedFrom="0" laneChangedTo="0"/>
        <edge id="35_4" sampledSeconds="276.42" traveltime="18.94" density="0.17" occupancy="0.03" waitingTime="0.00" speed="24.36" departed="0" arrived="0" entered="15" left="14" laneChangedFrom="0" laneChangedTo="0"/>
        <edge id="35_5" sampledSeconds="230.23" traveltime="18.95" density="0.14" occupancy="0.02" waitingTime="0.00" speed="24.35" departed="0" arrived="2" entered="14" left="12" laneChangedFrom="3" laneChangedTo="3"/>
        <edge id="35_6" sampledSeconds="229.71" traveltime="18.94" density="0.14" occupancy="0.02" waitingTime="0.00" speed="24.36" departed="0" arrived="0" entered="12" left="12" laneChangedFrom="9" laneChangedTo="9"/>
        <edge id="35_7" sampledSeconds="234.86" traveltime="19.35" density="0.15" occupancy="0.02" waitingTime="0.00" speed="23.03" departed="0" arrived="0" entered="12" left="12" laneChangedFrom="0" laneChangedTo="0"/>
        <edge id="36_1" sampledSeconds="1612.85" traveltime="29.01" density="1.17" occupancy="0.29" waitingTime="0.00" speed="13.16" departed="0" arrived="0" entered="58" left="53" laneChangedFrom="32" laneChangedTo="32"/>
        <edge id="36_2" sampledSeconds="1495.47" traveltime="29.73" density="1.05" occupancy="0.26" waitingTime="0.00" speed="13.25" departed="3" arrived="0" entered="52" left="47" laneChangedFrom="2" laneChangedTo="2"/>
        <edge id="36_3" sampledSeconds="1417.67" traveltime="29.75" density="1.00" occupancy="0.25" waitingTime="0.00" speed="13.24" departed="3" arrived="0" entered="47" left="45" laneChangedFrom="2" laneChangedTo="2"/>