<?xml version="1.0" encoding="UTF-8" ?>
<VTKFile type="PolyData" version="0.1" order="LittleEndian">
<PolyData>
 <Piece NumberOfPoints="75" NumberOfVerts="1" NumberOfLines="0" NumberOfStrips="0" NumberOfPolys="0">
<PointData>
 <DataArray type="Float64" Name="speed" format="ascii">13.3566 13.3412 13.1165 12.8485 13.2751 12.9826 12.4961 13.3493 12.515 13.1449 13.1165 13.1924 12.6123 13.2729 12.6244 12.3475 12.2396 13.089 12.9617 12.8102 12.2612 12.8822 13.1616 13.1013 12.7511 12.4724 12.3633 13.4007 12.9939 12.4692 13.1616 12.5241 12.3609 13.3161 12.5453 12.8341 13.0242 12.9085 12.2128 12.3469 12.4126 12.4873 13.3238 12.7956 13.1614 12.1888 12.497 13.3794 12.7393 12.5059 12.2575 12.2649 12.866 13.3439 12.9835 12.4416 12.1632 13.024 13.3976 13.3806 12.527 12.7956 13.2937 12.675 13.011 13.0198 12.126 12.6571 13.2735 13.3169 12.5773 13.1658 13.0668 8.12822 1.64992</DataArray>
</PointData>
<CellData/>
<Points>
 <DataArray type="Float64" Name="Points" NumberOfComponents="3" format="ascii">2392.25 591.38 0 2346.5 557.065 0 2314.7 533.22 0 2289.3 514.171 0 2257.69 490.462 0 2218.02 460.708 0 2197.96 445.666 0 2161.04 417.975 0 2137.03 399.966 0 2099.12 371.532 0 2073.32 352.183 0 2045.1 331.017 0 2010.97 305.416 0 1972.69 276.709 0 1937.37 250.22 0 1917.44 235.271 0 1884.45 210.533 0 1856.62 189.658 0 1819.47 161.791 0 1796.17 144.321 0 1771.02 125.455 0 1729.4 94.2447 0 1709.49 79.3068 0 1671.05 50.4791 0 1644.12 30.2799 0 1608.19 3.33798 0 1581.06 -1.65 0 1533.47 -1.65 0 1497.39 -1.65 0 1464.78 -1.65 0 1428.95 -1.65 0 1395.94 -1.65 0 1351.12 -1.65 0 1320.1 -1.65 0 1273.74 -1.65 0 1236.68 -1.65 0 1196.1 -1.65 0 1159.37 -1.65 0 1113.67 -1.65 0 1082.39 -1.65 0 1052.21 -1.65 0 1008.52 -1.65 0 975.077 -1.65 0 923.411 -1.65 0 889.278 -1.65 0 861.612 -1.65 0 813.661 -1.65 0 779.058 14.3942 0 743.234 41.2621 0 713.659 63.4432 0 688.46 82.3431 0 658.433 104.864 0 628.032 127.664 0 590.927 155.493 0 563.814 175.828 0 531.943 199.731 0 506.599 218.739 0 473.519 243.549 0 435.443 272.106 0 406.297 293.966 0 382.387 311.899 0 352.737 334.136 0 317.015 834.947 0 293.311 817.169 0 275.149 392.327 0 239.473 419.084 0 216.458 759.529 0 183.158 734.554 0 157.226 480.77 0 124.062 505.643 0 103.169 674.562 0 71.6 650.885 0 39.1331 626.535 0 15.8409 609.066 0 1.52602 599.183 0</DataArray>
</Points>
<Verts>
 <DataArray type="Int64" Name="connectivity" format="ascii">0 1 2 3 4 5 6 7 8 9 10 11 12 13 14 15 16 17 18 19 20 21 22 23 24 25 26 27 28 29 30 31 32 33 34 35 36 37 38 39 40 41 42 43 44 45 46 47 48 49 50 51 52 53 54 55 56 57 58 59 60 61 62 63 64 65 66 67 68 69 70 71 72 73 74</DataArray>
 <DataArray type="Int64" Name="offsets" format="ascii">75</DataArray>
</Verts>
<Lines>
 <DataArray type="Int64" Name="connectivity" format="ascii"/>
 <DataArray type="Int64" Name="offsets" format="ascii"/>
</Lines>
<Stripes>
 <DataArray type="Int64" Name="connectivity" format="ascii"/>
 <DataArray type="Int64" Name="offsets" format="ascii"/>
</Stripes>
<Polys>
 <DataArray type="Int64" Name="connectivity" format="ascii"/>
 <DataArray type="Int64" Name="offsets" format="ascii"/>
</Polys>
</Piece>
</PolyData>
</VTKFile>