<?xml version="1.0" encoding="UTF-8" ?>
<VTKFile type="PolyData" version="0.1" order="LittleEndian">
<PolyData>
 <Piece NumberOfPoints="85" NumberOfVerts="1" NumberOfLines="0" NumberOfStrips="0" NumberOfPolys="0">
<PointData>
 <DataArray type="Float64" Name="speed" format="ascii">2.93156e-007 9.01467e-005 0.00362972 0.0384837 0.404091 1.13497 0.536363 1.20271 1.18178 1.18407 13.319 12.1815 13.2515 13.3548 13.3193 13.0392 12.8331 12.6766 13.4067 12.7 12.2707 12.512 12.8686 13.1874 12.2756 13.2837 12.5717 12.9209 13.2246 13.3862 13.2351 13.0506 12.4518 12.3069 12.4787 13.0694 12.3404 13.3508 12.3401 12.2526 12.5748 13.3138 12.6187 13.1861 12.6376 13.3143 12.3808 12.8086 12.2355 12.9472 12.5706 13.2346 12.2492 12.2826 13.3915 12.1186 12.477 12.7637 12.5156 12.693 13.1879 12.2317 12.1314 13.3963 12.7227 12.7387 13.167 12.8063 13.3498 12.1592 12.378 13.0338 12.7214 12.9212 12.2024 13.4083 13.1062 12.9825 12.4884 13.3672 12.2671 12.6371 11.9187 4.94131 0</DataArray>
</PointData>
<CellData/>
<Points>
 <DataArray type="Float64" Name="Points" NumberOfComponents="3" format="ascii">2398.01 600.181 0 2392.01 604.681 0 2386 609.184 0 2380 613.69 0 2373.96 618.22 0 2367.56 623.019 0 2360.29 628.471 0 2353.32 633.699 0 2345.99 639.193 0 2338.98 644.449 0 2396.99 594.935 0 2359.82 567.057 0 2331.45 545.78 0 2306.57 527.118 0 2279.13 506.536 0 2248.06 483.239 0 2217.36 460.213 0 2177.11 430.022 0 2155.45 413.779 0 2117.46 385.285 0 2094.72 368.235 0 2057.24 340.123 0 2017.06 309.991 0 1994.8 293.292 0 1973.02 276.959 0 1936.18 249.327 0 1905.73 226.49 0 1872.76 201.765 0 1842.24 178.876 0 1816.74 159.746 0 1782.74 134.244 0 1752.52 111.584 0 1722.9 89.3705 0 1691.29 65.6581 0 1664.71 45.7264 0 1622.82 14.3069 0 1602.5 -0.532469 0 1567.22 -1.65 0 1524.86 -1.65 0 1479.53 -1.65 0 1445.37 -1.65 0 1405.8 -1.65 0 1372.96 -1.65 0 1348.48 -1.65 0 1291.02 -1.65 0 1255.44 -1.65 0 1209.94 -1.65 0 1168.25 -1.65 0 1134.42 -1.65 0 1104.37 -1.65 0 1072.38 -1.65 0 1031.24 -1.65 0 992.411 -1.65 0 954.007 -1.65 0 907.664 -1.65 0 873.653 -1.65 0 839.583 -1.65 0 792.155 4.57105 0 763.22 26.2729 0 733.582 48.501 0 706.907 68.5075 0 679.24 89.2577 0 642.138 117.085 0 610.581 140.752 0 584.136 160.586 0 552.079 184.629 0 522.804 206.586 0 493.907 228.258 0 459.846 253.804 0 424.447 280.353 0 399.461 299.093 0 367.533 323.039 0 344.659 340.195 0 309.206 366.784 0 275.014 392.429 0 249.458 411.596 0 216.65 436.202 0 185.872 459.285 0 151.977 484.707 0 122.891 506.521 0 89.821 531.324 0 60.3613 553.419 0 33.8027 573.338 0 8.16548 592.566 0 0.1 598.35 0</DataArray>
</Points>
<Verts>
 <DataArray type="Int64" Name="connectivity" format="ascii">0 1 2 3 4 5 6 7 8 9 10 11 12 13 14 15 16 17 18 19 20 21 22 23 24 25 26 27 28 29 30 31 32 33 34 35 36 37 38 39 40 41 42 43 44 45 46 47 48 49 50 51 52 53 54 55 56 57 58 59 60 61 62 63 64 65 66 67 68 69 70 71 72 73 74 75 76 77 78 79 80 81 82 83 84</DataArray>
 <DataArray type="Int64" Name="offsets" format="ascii">85</DataArray>
</Verts>
<Lines>
 <DataArray type="Int64" Name="connectivity" format="ascii"/>
 <DataArray type="Int64" Name="offsets" format="ascii"/>
</Lines>
<Stripes>
 <DataArray type="Int64" Name="connectivity" format="ascii"/>
 <DataArray type="Int64" Name="offsets" format="ascii"/>
</Stripes>
<Polys>
 <DataArray type="Int64" Name="connectivity" format="ascii"/>
 <DataArray type="Int64" Name="offsets" format="ascii"/>
</Polys>
</Piece>
</PolyData>
</VTKFile>