<?xml version="1.0" encoding="UTF-8" ?>
<VTKFile type="PolyData" version="0.1" order="LittleEndian">
<PolyData>
 <Piece NumberOfPoints="85" NumberOfVerts="1" NumberOfLines="0" NumberOfStrips="0" NumberOfPolys="0">
<PointData>
 <DataArray type="Float64" Name="speed" format="ascii">0.500378 3.9075 6.82777 6.52605 6.78383 6.20358 5.29713 4.61693 2.21343 1.41393 4.72756 4.93294 12.7414 12.2409 5.95508 11.4609 12.1533 12.3781 12.5528 12.2387 12.6829 12.7541 12.6291 12.3054 12.9518 13.1773 12.5468 13.3378 12.6091 12.3672 12.6715 12.4944 12.8996 12.6268 13.0527 12.2313 12.8273 12.9772 13.0303 12.5741 12.7375 13.0624 12.4552 12.8574 12.3201 13.1832 13.3209 13.159 12.8575 12.9489 12.1793 12.3378 13.1757 12.1433 13.253 12.1374 12.5242 12.2826 12.2712 13.2154 12.3788 13.1468 12.6941 12.2306 12.7725 13.3542 12.7247 12.2651 13.057 12.9997 12.9126 12.3417 12.4384 12.2433 12.3952 12.7507 12.7373 12.5896 12.7294 12.751 12.8907 12.9858 13.2976 7.54228 1.97907</DataArray>
</PointData>
<CellData/>
<Points>
 <DataArray type="Float64" Name="Points" NumberOfComponents="3" format="ascii">2397.81 600.334 0 2390.1 606.116 0 2379.45 614.096 0 2366.96 623.466 0 2354.82 632.573 0 2342.13 642.09 0 2329.71 651.406 0 2319.27 659.233 0 2308.7 667.165 0 2300.59 673.243 0 2292.62 679.226 0 2281.85 687.299 0 2337.32 550.184 0 2300.11 522.278 0 2270.82 695.571 0 2254.47 707.837 0 2229.13 469.038 0 2192.04 441.219 0 2161.57 418.37 0 2135.84 399.073 0 2109.55 379.355 0 2072.28 351.399 0 2038.71 326.225 0 2012.86 306.835 0 1987.87 288.098 0 1947.27 257.645 0 1920.58 237.628 0 1885.49 211.311 0 1854.29 187.91 0 1826.16 166.815 0 1800.95 147.901 0 1766.61 122.149 0 1737.58 100.378 0 1707.03 77.4676 0 1672.67 51.6953 0 1644.8 30.7906 0 1613.09 7.01234 0 1578.18 -1.65 0 1537.32 -1.65 0 1499.63 -1.65 0 1464.86 -1.65 0 1420.17 -1.65 0 1390.85 -1.65 0 1343.04 -1.65 0 1314.21 -1.65 0 1285.63 -1.65 0 1231.12 -1.65 0 1202.42 -1.65 0 1149.37 -1.65 0 1112.16 -1.65 0 1085.58 -1.65 0 1047.51 -1.65 0 1007.49 -1.65 0 959.446 -1.65 0 927.626 -1.65 0 885.12 -1.65 0 845.212 -1.65 0 808.263 -1.65 0 775.342 17.1814 0 750.185 36.0491 0 715.563 62.0157 0 687.885 82.7742 0 658.83 104.565 0 629.773 126.358 0 596.026 151.668 0 564.268 175.487 0 532.214 199.528 0 506.361 218.918 0 470.09 246.121 0 442.527 266.793 0 405.786 294.349 0 379.271 314.235 0 348.762 337.118 0 318.785 359.6 0 284.75 385.127 0 257.247 405.754 0 231.787 424.849 0 198.676 449.682 0 169.949 471.228 0 133.338 498.686 0 106.377 518.907 0 75.5306 542.042 0 39.3607 569.169 0 15.1492 587.328 0 1.72731 597.224 0</DataArray>
</Points>
<Verts>
 <DataArray type="Int64" Name="connectivity" format="ascii">0 1 2 3 4 5 6 7 8 9 10 11 12 13 14 15 16 17 18 19 20 21 22 23 24 25 26 27 28 29 30 31 32 33 34 35 36 37 38 39 40 41 42 43 44 45 46 47 48 49 50 51 52 53 54 55 56 57 58 59 60 61 62 63 64 65 66 67 68 69 70 71 72 73 74 75 76 77 78 79 80 81 82 83 84</DataArray>
 <DataArray type="Int64" Name="offsets" format="ascii">85</DataArray>
</Verts>
<Lines>
 <DataArray type="Int64" Name="connectivity" format="ascii"/>
 <DataArray type="Int64" Name="offsets" format="ascii"/>
</Lines>
<Stripes>
 <DataArray type="Int64" Name="connectivity" format="ascii"/>
 <DataArray type="Int64" Name="offsets" format="ascii"/>
</Stripes>
<Polys>
 <DataArray type="Int64" Name="connectivity" format="ascii"/>
 <DataArray type="Int64" Name="offsets" format="ascii"/>
</Polys>
</Piece>
</PolyData>
</VTKFile>