<?xml version="1.0" encoding="UTF-8" ?>
<VTKFile type="PolyData" version="0.1" order="LittleEndian">
<PolyData>
 <Piece NumberOfPoints="95" NumberOfVerts="1" NumberOfLines="0" NumberOfStrips="0" NumberOfPolys="0">
<PointData>
 <DataArray type="Float64" Name="speed" format="ascii">12.1239 12.7225 13.3402 12.4776 13.1478 12.7896 12.62 12.857 12.6448 12.5952 12.2032 13.2656 12.1512 12.3055 12.6762 12.2936 12.317 12.8952 12.8121 13.0557 13.0283 12.3637 12.8954 11.098 5.42251 0 12.1204 12.4754 12.1274 12.6907 12.1879 13.3693 13.1253 12.3798 12.2964 13.0079 12.8324 6.93701 12.179 13.284 10.6574 12.2664 12.6655 13.1605 12.4656 13.0384 12.3682 13.0824 13.0354 12.2435 12.4041 12.6074 12.9957 13.1513 12.9825 12.9882 12.3332 12.3112 13.2255 13.0349 12.1463 12.4782 12.1907 12.3463 12.6315 13.3972 12.9418 12.5925 12.4106 13.0689 12.8794 13.0297 13.0367 13.2143 13.2334 12.9464 12.9509 13.3434 12.6637 13.1229 12.4147 12.3186 13.1777 12.3103 12.4468 12.7103 13.0541 12.3943 12.1135 12.5737 12.377 12.7187 12.3836 12.4459 12.5013</DataArray>
</PointData>
<CellData/>
<Points>
 <DataArray type="Float64" Name="Points" NumberOfComponents="3" format="ascii">2228.78 727.104 0 689.766 81.3637 0 660.561 103.267 0 625.893 129.268 0 596.127 151.593 0 565.115 174.852 0 531.792 199.844 0 502.432 221.865 0 469.727 246.393 0 440.872 268.035 0 407.827 292.819 0 378.545 314.78 0 348.851 337.051 0 317.399 360.64 0 287.154 812.552 0 268.629 397.217 0 237.367 420.664 0 209.151 441.826 0 189.147 739.046 0 154.387 712.976 0 125.984 504.201 0 95.0621 527.393 0 58.1568 555.072 0 31.1355 575.338 0 8.90458 592.012 0 0.1 598.35 0 2206.51 743.808 0 2138.74 794.631 0 2115.75 811.877 0 1999.63 898.965 0 1978.08 915.127 0 1908.18 967.552 0 1861.54 1002.53 0 1817.28 1035.73 0 1754.63 1082.72 0 1726.67 1103.69 0 1636.39 1171.39 0 1605.32 1194.5 0 1602.65 1091.84 0 1602.65 1062.22 0 2390.35 605.924 0 2365.59 624.493 0 1602.65 930.467 0 1602.65 891.581 0 2298.48 674.825 0 2267.15 698.322 0 1602.65 812.345 0 1602.65 773.192 0 2178.25 764.997 0 1602.65 706.093 0 1602.65 647.23 0 1602.65 616.903 0 2071.41 845.128 0 2041.56 867.517 0 1602.65 528.568 0 1602.65 479.526 0 1602.65 437.453 0 1943.3 941.213 0 1602.65 388.908 0 1602.65 348.212 0 1602.65 308.919 0 1602.65 283.136 0 1602.65 247.469 0 1602.65 200.993 0 1602.65 161.677 0 1602.65 128.098 0 1602.65 98.2531 0 1602.65 49.6315 0 1602.65 17.3404 0 1583.55 -1.65 0 1530.94 -1.65 0 1493.97 -1.65 0 1460.63 -1.65 0 1426.95 -1.65 0 1385.68 -1.65 0 1353.78 -1.65 0 1300.84 -1.65 0 1265.83 -1.65 0 1239.08 -1.65 0 1206.9 -1.65 0 1159.13 -1.65 0 1121.79 -1.65 0 1080.78 -1.65 0 1047.38 -1.65 0 2326.49 653.82 0 1002.59 -1.65 0 967.895 -1.65 0 938.58 1198.35 0 905.176 1198.35 0 875.394 -1.65 0 829.609 -1.65 0 794.092 3.05858 0 764.783 25.1007 0 742.819 1154.3 0 715.111 62.3544 0</DataArray>
</Points>
<Verts>
 <DataArray type="Int64" Name="connectivity" format="ascii">0 1 2 3 4 5 6 7 8 9 10 11 12 13 14 15 16 17 18 19 20 21 22 23 24 25 26 27 28 29 30 31 32 33 34 35 36 37 38 39 40 41 42 43 44 45 46 47 48 49 50 51 52 53 54 55 56 57 58 59 60 61 62 63 64 65 66 67 68 69 70 71 72 73 74 75 76 77 78 79 80 81 82 83 84 85 86 87 88 89 90 91 92 93 94</DataArray>
 <DataArray type="Int64" Name="offsets" format="ascii">95</DataArray>
</Verts>
<Lines>
 <DataArray type="Int64" Name="connectivity" format="ascii"/>
 <DataArray type="Int64" Name="offsets" format="ascii"/>
</Lines>
<Stripes>
 <DataArray type="Int64" Name="connectivity" format="ascii"/>
 <DataArray type="Int64" Name="offsets" format="ascii"/>
</Stripes>
<Polys>
 <DataArray type="Int64" Name="connectivity" format="ascii"/>
 <DataArray type="Int64" Name="offsets" format="ascii"/>
</Polys>
</Piece>
</PolyData>
</VTKFile>