<?xml version="1.0" encoding="UTF-8" ?>
<VTKFile type="PolyData" version="0.1" order="LittleEndian">
<PolyData>
 <Piece NumberOfPoints="40" NumberOfVerts="1" NumberOfLines="0" NumberOfStrips="0" NumberOfPolys="0">
<PointData>
 <DataArray type="Float64" Name="speed" format="ascii">12.866 12.8226 12.9336 12.3183 12.8118 13.3402 12.7965 13.2968 12.249 13.1097 13.3201 12.7171 12.7551 12.8867 13.3759 12.4597 12.8297 12.8819 13.3556 12.672 12.5188 13.3132 12.8576 12.6009 12.4759 12.2737 12.5075 12.1605 12.3095 12.4443 13.3062 12.2786 9.561 3.43544 12.3217 12.8717 12.7977 13.3238 13.1641 12.9074</DataArray>
</PointData>
<CellData/>
<Points>
 <DataArray type="Float64" Name="Points" NumberOfComponents="3" format="ascii">799.35 852.439 0 799.35 878.473 0 815.997 -1.65 0 785.321 9.69666 0 760.673 1167.69 0 728.665 1143.69 0 705.962 69.2162 0 676.987 90.9474 0 655.538 1088.84 0 631.491 1070.81 0 593.028 153.917 0 563.379 1019.72 0 1076.05 -1.65 0 532.319 996.426 0 509.045 216.904 0 482.302 236.962 0 442.918 929.375 0 421.477 913.294 0 398.593 299.744 0 373.29 318.721 0 348.006 858.191 0 318.135 835.787 0 287.116 383.352 0 1041.49 -1.65 0 262.971 794.414 0 223.059 764.48 0 211.058 440.396 0 171.526 725.83 0 146.308 706.916 0 115.821 684.051 0 87.6206 662.901 0 52.0391 636.214 0 24.4903 615.553 0 4.49991 600.919 0 799.35 973.116 0 799.35 1009.32 0 799.35 1053.83 0 914.859 -1.65 0 799.35 1118.56 0 799.35 1158.16 0</DataArray>
</Points>
<Verts>
 <DataArray type="Int64" Name="connectivity" format="ascii">0 1 2 3 4 5 6 7 8 9 10 11 12 13 14 15 16 17 18 19 20 21 22 23 24 25 26 27 28 29 30 31 32 33 34 35 36 37 38 39</DataArray>
 <DataArray type="Int64" Name="offsets" format="ascii">40</DataArray>
</Verts>
<Lines>
 <DataArray type="Int64" Name="connectivity" format="ascii"/>
 <DataArray type="Int64" Name="offsets" format="ascii"/>
</Lines>
<Stripes>
 <DataArray type="Int64" Name="connectivity" format="ascii"/>
 <DataArray type="Int64" Name="offsets" format="ascii"/>
</Stripes>
<Polys>
 <DataArray type="Int64" Name="connectivity" format="ascii"/>
 <DataArray type="Int64" Name="offsets" format="ascii"/>
</Polys>
</Piece>
</PolyData>
</VTKFile>