<?xml version="1.0" encoding="UTF-8" ?>
<VTKFile type="PolyData" version="0.1" order="LittleEndian">
<PolyData>
 <Piece NumberOfPoints="120" NumberOfVerts="1" NumberOfLines="0" NumberOfStrips="0" NumberOfPolys="0">
<PointData>
 <DataArray type="Float64" Name="speed" format="ascii">13.0741 12.5024 12.2664 12.8122 12.3407 12.445 12.125 7.64763 9.74065 12.9767 12.919 13.0345 12.8873 12.891 12.9647 12.8947 12.2886 13.3333 13.1958 12.2126 12.6019 12.3845 13.0549 12.728 13.0735 13.0119 12.2576 12.2704 12.6793 12.4591 12.9583 11.7299 13.2911 12.3367 9.14294 12.5 12.5089 12.8895 12.3097 12.9204 12.1337 13.1863 13.2724 13.1529 12.3959 13.3974 12.5548 12.5848 12.7631 12.9974 12.5133 13.3983 12.8386 13.0164 12.1591 12.5784 12.765 12.5961 12.4898 13.2695 8.34929 2.22157 9.94297 13.2106 12.6141 12.3326 12.452 13.254 13.2595 13.1941 12.303 12.145 12.9969 13.2273 12.4416 13.0698 13.2646 12.9346 12.8808 13.088 12.8249 12.2491 13.2724 12.1628 13.1556 12.8048 13.3246 12.3771 13.2419 13.0744 12.4425 12.3441 12.2601 12.4327 13.1574 12.9382 13.4046 12.6148 12.7148 12.4623 12.6249 13.0512 12.7703 12.5601 12.3366 12.4393 12.9036 13.3075 12.5494 12.9149 13.1069 12.5949 13.0868 12.7206 12.8258 12.3857 12.2479 13.1118 12.7455 12.9968</DataArray>
</PointData>
<CellData/>
<Points>
 <DataArray type="Float64" Name="Points" NumberOfComponents="3" format="ascii">224.775 765.767 0 206.263 751.883 0 174.706 728.215 0 146.645 707.169 0 103.499 674.809 0 60.4215 642.501 0 32.3736 621.465 0 6.59964 602.12 0 18.6499 588.828 0 48.5084 566.434 0 68.9444 551.107 0 90.2459 535.13 0 124.924 509.122 0 153.784 487.477 0 178.071 469.261 0 217.554 439.649 0 244.933 419.115 0 275.043 396.532 0 307.984 371.826 0 351.798 338.966 0 379.943 317.857 0 413.001 293.063 0 444.24 269.634 0 472.964 248.091 0 503.67 225.061 0 536.9 200.139 0 562.124 181.22 0 584.412 164.504 0 614.215 142.152 0 656.346 110.553 0 687.971 86.8347 0 706.371 73.0344 0 735.811 50.9544 0 764.937 29.1101 0 792.803 8.21039 0 775.427 17.117 0 747.658 37.944 0 714.933 62.4877 0 687.123 83.3452 0 662.413 101.878 0 620.202 133.537 0 585.919 159.249 0 558.31 179.956 0 528.62 202.223 0 501.282 222.727 0 474.938 242.485 0 443.462 266.092 0 405.62 294.474 0 388.391 307.395 0 350.031 336.166 0 321.056 357.897 0 283.468 386.088 0 254.525 407.795 0 225.194 429.794 0 195.386 452.15 0 165.693 474.42 0 135.901 496.764 0 104.874 520.034 0 69.8255 546.321 0 42.7877 566.599 0 16.0691 586.638 0 1.92672 597.086 0 2390.57 605.76 0 2323.69 655.924 0 2277.72 690.396 0 2215.79 736.841 0 2163.81 775.826 0 2116.7 811.161 0 2082.38 836.901 0 2010.85 890.547 0 1989.36 906.665 0 1933.4 948.638 0 1900.27 973.486 0 1839.96 1018.72 0 1804.83 1045.07 0 1763.55 1076.03 0 1739.29 1094.22 0 1709.13 1116.84 0 1673.92 1143.25 0 1653.11 1158.85 0 1619.28 1184.23 0 1578.3 1198.35 0 1520.73 1198.35 0 1484.07 1198.35 0 1452.42 1198.35 0 1409.45 1198.35 0 1369.04 1198.35 0 1332.8 1198.35 0 1286.01 1198.35 0 1254.19 1198.35 0 1214.7 1198.35 0 1176.05 1198.35 0 1149.27 1198.35 0 1113.1 1198.35 0 1082.13 1198.35 0 1044.83 1198.35 0 1005.75 1198.35 0 962.606 1198.35 0 933.161 1198.35 0 888.077 1198.35 0 855.403 1198.35 0 809.952 1198.35 0 773.241 1177.12 0 729.768 1144.51 0 703.978 1125.17 0 676.196 1104.33 0 643.944 1080.14 0 607.86 1053.08 0 583.589 1034.88 0 555.856 1014.08 0 535.323 998.679 0 502.926 974.381 0 472.331 951.435 0 439.959 927.156 0 415.718 908.975 0 386.461 887.032 0 347.602 857.887 0 305.163 826.058 0 276.294 804.406 0 257.409 790.243 0</DataArray>
</Points>
<Verts>
 <DataArray type="Int64" Name="connectivity" format="ascii">0 1 2 3 4 5 6 7 8 9 10 11 12 13 14 15 16 17 18 19 20 21 22 23 24 25 26 27 28 29 30 31 32 33 34 35 36 37 38 39 40 41 42 43 44 45 46 47 48 49 50 51 52 53 54 55 56 57 58 59 60 61 62 63 64 65 66 67 68 69 70 71 72 73 74 75 76 77 78 79 80 81 82 83 84 85 86 87 88 89 90 91 92 93 94 95 96 97 98 99 100 101 102 103 104 105 106 107 108 109 110 111 112 113 114 115 116 117 118 119</DataArray>
 <DataArray type="Int64" Name="offsets" format="ascii">120</DataArray>
</Verts>
<Lines>
 <DataArray type="Int64" Name="connectivity" format="ascii"/>
 <DataArray type="Int64" Name="offsets" format="ascii"/>
</Lines>
<Stripes>
 <DataArray type="Int64" Name="connectivity" format="ascii"/>
 <DataArray type="Int64" Name="offsets" format="ascii"/>
</Stripes>
<Polys>
 <DataArray type="Int64" Name="connectivity" format="ascii"/>
 <DataArray type="Int64" Name="offsets" format="ascii"/>
</Polys>
</Piece>
</PolyData>
</VTKFile>