<?xml version="1.0" encoding="UTF-8" ?>
<VTKFile type="PolyData" version="0.1" order="LittleEndian">
<PolyData>
 <Piece NumberOfPoints="23" NumberOfVerts="1" NumberOfLines="0" NumberOfStrips="0" NumberOfPolys="0">
<PointData>
 <DataArray type="Float64" Name="speed" format="ascii">13.0154 12.7324 12.452 12.8253 13.3984 12.4504 13.3556 13.2627 12.3371 12.8482 12.4455 12.2818 12.4999 12.3632 12.2986 12.6809 13.2457 12.4902 13.404 12.4269 13.1178 12.5567 12.9586</DataArray>
</PointData>
<CellData/>
<Points>
 <DataArray type="Float64" Name="Points" NumberOfComponents="3" format="ascii">2386.32 608.95 0 2371 575.44 0 2335.24 548.619 0 2299.62 521.907 0 2276.72 504.736 0 2262.6 701.74 0 2220.2 733.54 0 2203.01 449.453 0 2169.92 424.631 0 2130.61 800.731 0 2100.18 372.326 0 2070.57 350.119 0 2043.62 329.904 0 2019.44 884.107 0 1986.65 908.697 0 1964.37 270.468 0 1945.83 256.566 0 1911.39 965.146 0 1873.64 202.422 0 1846.08 181.752 0 1823.27 1031.24 0 1792.64 1054.21 0 1779.27 131.642 0</DataArray>
</Points>
<Verts>
 <DataArray type="Int64" Name="connectivity" format="ascii">0 1 2 3 4 5 6 7 8 9 10 11 12 13 14 15 16 17 18 19 20 21 22</DataArray>
 <DataArray type="Int64" Name="offsets" format="ascii">23</DataArray>
</Verts>
<Lines>
 <DataArray type="Int64" Name="connectivity" format="ascii"/>
 <DataArray type="Int64" Name="offsets" format="ascii"/>
</Lines>
<Stripes>
 <DataArray type="Int64" Name="connectivity" format="ascii"/>
 <DataArray type="Int64" Name="offsets" format="ascii"/>
</Stripes>
<Polys>
 <DataArray type="Int64" Name="connectivity" format="ascii"/>
 <DataArray type="Int64" Name="offsets" format="ascii"/>
</Polys>
</Piece>
</PolyData>
</VTKFile>