<?xml version="1.0" encoding="UTF-8" ?>
<VTKFile type="PolyData" version="0.1" order="LittleEndian">
<PolyData>
 <Piece NumberOfPoints="88" NumberOfVerts="1" NumberOfLines="0" NumberOfStrips="0" NumberOfPolys="0">
<PointData>
 <DataArray type="Float64" Name="speed" format="ascii">1.88661e-005 0.00060346 0.0132164 0.575014 0.0429441 0.522487 1.31512 2.39579 0.642713 0.206826 0.0175683 0.0492717 0.169162 0.299966 13.0537 12.2639 12.2218 12.3288 13.0131 12.3491 12.4825 12.6568 13.0706 12.1275 12.3144 12.9391 13.0481 12.782 12.4917 12.8896 13.2489 12.7471 12.2977 12.2594 12.6892 12.19 13.137 13.3923 13.1032 13.2911 12.3505 13.3615 12.3321 12.8834 12.6984 12.4582 13.3806 12.1406 12.4249 12.513 12.5141 12.2051 13.35 12.8202 12.4021 12.4404 12.9899 12.7119 13.2531 12.3626 12.2787 12.4013 12.8031 12.5155 12.8515 12.5865 12.6637 12.1524 12.4782 12.8697 12.6939 12.321 12.6437 12.8224 13.3403 13.0321 12.5324 12.8204 12.3806 13.2584 13.0117 13.1689 12.5361 12.4379 12.7511 12.3763 7.48085 2.08768</DataArray>
</PointData>
<CellData/>
<Points>
 <DataArray type="Float64" Name="Points" NumberOfComponents="3" format="ascii">2398.01 600.181 0 2392.01 604.681 0 2386 609.185 0 2373.92 618.249 0 2379.99 613.698 0 2367.27 623.237 0 2360.46 628.344 0 2352.74 634.135 0 2344.72 640.147 0 2338.16 645.065 0 2331.99 649.692 0 2325.97 654.212 0 2319.9 658.763 0 2313.75 663.376 0 2386.5 587.064 0 2352.34 561.444 0 2323.47 539.798 0 2294.1 517.766 0 2261.18 493.08 0 2229.19 469.084 0 2206.5 452.067 0 2169.13 424.038 0 2144.51 405.574 0 2114.26 382.886 0 2084.23 360.367 0 2046.05 331.733 0 2020.8 312.795 0 1998.73 296.242 0 1956.5 264.565 0 1929.71 244.474 0 1898.09 220.758 0 1859.33 191.692 0 1831.94 171.149 0 1808.24 153.375 0 1767.33 122.689 0 1749.37 109.22 0 1717.01 84.9487 0 1684.81 60.7972 0 1653.91 37.6277 0 1621.66 13.4376 0 1592.11 -1.65 0 1551.66 -1.65 0 1508.72 -1.65 0 1466.05 -1.65 0 1439.33 -1.65 0 1398.47 -1.65 0 1362.53 -1.65 0 1303.5 -1.65 0 1282.33 -1.65 0 1242.58 -1.65 0 1209.75 -1.65 0 1164.4 -1.65 0 1130.49 -1.65 0 1089.91 -1.65 0 1057.15 -1.65 0 1009.67 -1.65 0 975.025 -1.65 0 938.232 -1.65 0 905.138 -1.65 0 856.495 -1.65 0 827.03 -1.65 0 784.619 10.2229 0 750.265 35.9892 0 719.968 58.7117 0 698 75.1879 0 668.427 97.3673 0 634.667 122.688 0 602.774 146.607 0 570.339 170.934 0 539.821 193.823 0 516.61 211.231 0 485.299 234.714 0 447.312 263.205 0 425.67 279.436 0 391.27 305.236 0 360.816 328.077 0 327.512 353.055 0 298.637 374.712 0 264.65 400.201 0 241.602 417.488 0 205.052 444.9 0 172.294 469.469 0 139.761 493.869 0 110.728 515.644 0 77.0387 540.911 0 48.1104 562.607 0 16.2494 586.503 0 1.81662 597.162 0</DataArray>
</Points>
<Verts>
 <DataArray type="Int64" Name="connectivity" format="ascii">0 1 2 3 4 5 6 7 8 9 10 11 12 13 14 15 16 17 18 19 20 21 22 23 24 25 26 27 28 29 30 31 32 33 34 35 36 37 38 39 40 41 42 43 44 45 46 47 48 49 50 51 52 53 54 55 56 57 58 59 60 61 62 63 64 65 66 67 68 69 70 71 72 73 74 75 76 77 78 79 80 81 82 83 84 85 86 87</DataArray>
 <DataArray type="Int64" Name="offsets" format="ascii">88</DataArray>
</Verts>
<Lines>
 <DataArray type="Int64" Name="connectivity" format="ascii"/>
 <DataArray type="Int64" Name="offsets" format="ascii"/>
</Lines>
<Stripes>
 <DataArray type="Int64" Name="connectivity" format="ascii"/>
 <DataArray type="Int64" Name="offsets" format="ascii"/>
</Stripes>
<Polys>
 <DataArray type="Int64" Name="connectivity" format="ascii"/>
 <DataArray type="Int64" Name="offsets" format="ascii"/>
</Polys>
</Piece>
</PolyData>
</VTKFile>