<?xml version="1.0" encoding="UTF-8" ?>
<VTKFile type="PolyData" version="0.1" order="LittleEndian">
<PolyData>
 <Piece NumberOfPoints="83" NumberOfVerts="1" NumberOfLines="0" NumberOfStrips="0" NumberOfPolys="0">
<PointData>
 <DataArray type="Float64" Name="speed" format="ascii">3.82145 12.1121 12.7614 12.846 12.8245 12.1727 12.6095 13.0476 12.9522 12.3661 13.2061 13.0555 12.33 13.2505 13.1539 12.7913 13.1357 12.8977 13.0087 13.3793 12.2132 12.5756 13.3426 13.0347 12.5921 12.2449 12.8637 13.2899 13.2169 12.8276 12.7495 13.1936 12.503 12.2699 12.997 12.1768 12.1823 12.9625 12.7382 12.7682 13.1738 12.8714 13.0647 12.9341 12.3728 12.9645 13.2487 12.1572 13.2203 13.0945 13.0244 12.7526 12.6077 13.2262 12.7166 12.7333 13.1267 13.2614 12.7716 12.4398 12.4126 13.0606 12.2369 12.2959 12.4059 12.1449 12.1279 12.6773 12.8771 12.3382 12.9308 13.2731 12.7759 13.2821 12.756 12.2213 12.7137 12.5529 12.67 13.2305 6.606 4.1145 12.6065</DataArray>
</PointData>
<CellData/>
<Points>
 <DataArray type="Float64" Name="Points" NumberOfComponents="3" format="ascii">1599.65 2.55445 0 1599.35 34.5548 0 2294.71 518.226 0 1599.35 362.9 0 1599.35 406.573 0 2218.36 460.961 0 1599.35 473.329 0 1599.35 504.515 0 2125.01 390.951 0 1599.35 576.505 0 1599.35 612.174 0 2035.16 323.563 0 1599.35 677.968 0 1599.35 733.644 0 1955.82 264.055 0 1599.35 797.332 0 1599.35 825.825 0 1879.54 206.849 0 1599.35 878.283 0 1599.35 928.239 0 1794.12 142.784 0 1599.35 997.236 0 1599.35 1022.24 0 1717.46 85.2843 0 1686.45 62.0319 0 1599.35 1132.53 0 1620.16 12.3136 0 1586 -1.65 0 1548.41 1198.35 0 1518.45 1198.35 0 1486.89 -1.65 0 1449.27 -1.65 0 1599.35 116.723 0 1416.19 1198.35 0 1378.97 1198.35 0 1360.42 -1.65 0 1327.42 -1.65 0 1292.33 1198.35 0 1257.4 1198.35 0 1237.3 -1.65 0 1199.37 -1.65 0 1165.15 1198.35 0 1136.76 1198.35 0 1599.35 157.288 0 1093.46 1198.35 0 1059.04 -1.65 0 1025.16 -1.65 0 987.316 1198.35 0 955.312 1198.35 0 931.81 -1.65 0 874.928 -1.65 0 841.59 1198.35 0 818.31 1198.35 0 776.511 1179.57 0 749.454 1159.28 0 713.44 1132.27 0 692.029 1116.21 0 660.413 1092.5 0 623.573 1064.87 0 591.644 1040.92 0 563.021 1019.45 0 534.362 997.958 0 503.982 975.173 0 472.986 951.926 0 1599.35 236.17 0 435.508 923.817 0 406.676 902.194 0 383.807 885.042 0 354.349 862.948 0 317.229 835.108 0 291.37 815.714 0 260.161 792.307 0 224.283 765.398 0 199.385 746.725 0 160.73 717.733 0 1599.35 268.144 0 135.088 698.502 0 96.5757 669.617 0 68.9221 648.877 0 43.1025 629.512 0 13.6824 607.447 0 5.14986 594.828 0 2324.61 540.653 0</DataArray>
</Points>
<Verts>
 <DataArray type="Int64" Name="connectivity" format="ascii">0 1 2 3 4 5 6 7 8 9 10 11 12 13 14 15 16 17 18 19 20 21 22 23 24 25 26 27 28 29 30 31 32 33 34 35 36 37 38 39 40 41 42 43 44 45 46 47 48 49 50 51 52 53 54 55 56 57 58 59 60 61 62 63 64 65 66 67 68 69 70 71 72 73 74 75 76 77 78 79 80 81 82</DataArray>
 <DataArray type="Int64" Name="offsets" format="ascii">83</DataArray>
</Verts>
<Lines>
 <DataArray type="Int64" Name="connectivity" format="ascii"/>
 <DataArray type="Int64" Name="offsets" format="ascii"/>
</Lines>
<Stripes>
 <DataArray type="Int64" Name="connectivity" format="ascii"/>
 <DataArray type="Int64" Name="offsets" format="ascii"/>
</Stripes>
<Polys>
 <DataArray type="Int64" Name="connectivity" format="ascii"/>
 <DataArray type="Int64" Name="offsets" format="ascii"/>
</Polys>
</Piece>
</PolyData>
</VTKFile>