<?xml version="1.0" encoding="UTF-8" ?>
<VTKFile type="PolyData" version="0.1" order="LittleEndian">
<PolyData>
 <Piece NumberOfPoints="128" NumberOfVerts="1" NumberOfLines="0" NumberOfStrips="0" NumberOfPolys="0">
<PointData>
 <DataArray type="Float64" Name="speed" format="ascii">12.5421 12.2888 13.0465 13.1192 13.067 12.4106 13.2334 12.134 12.1733 12.709 13.2179 12.4331 13.0987 12.3487 13.1084 12.3467 13.1584 12.9751 12.9217 12.6547 12.7903 13.295 12.7348 12.8439 12.4916 12.2342 12.9584 13.1208 12.4159 11.5253 4.68407 9.49722 12.7962 13.3679 12.2692 12.396 13.2992 13.3408 12.4804 13.1934 12.2646 13.2987 13.0453 12.4479 12.1128 12.6601 12.6132 12.5861 12.6682 12.3319 13.1366 12.9149 12.3942 12.2701 12.9917 12.2084 12.621 6.81051 12.7062 12.8174 12.9574 12.6788 12.4574 12.722 13.2327 12.7207 13.4071 13.3748 12.7467 12.8987 13.0155 12.8591 12.8726 12.188 12.6974 12.9543 13.0548 12.1125 13.0872 12.5359 12.9474 12.2372 11.3238 5.76498 0 8.16266 12.3201 12.378 12.3178 12.1241 12.4961 12.8417 13.1239 13.1858 13.1449 12.5174 12.6863 13.0281 13.2259 13.2727 12.6128 12.9731 13.2323 12.5965 13.1261 12.7978 12.147 12.88 13.1062 13.3869 12.9467 13.1501 12.3721 13.1174 12.5938 12.9016 12.1793 12.6083 13.0322 13.1113 12.1461 12.6958 13.198 12.9256 12.7035 12.484 12.7713 12.2475</DataArray>
</PointData>
<CellData/>
<Points>
 <DataArray type="Float64" Name="Points" NumberOfComponents="3" format="ascii">947.516 1198.35 0 920.976 1198.35 0 891.496 1198.35 0 856.192 1198.35 0 798.872 1196.02 0 752.763 1161.76 0 726.653 1142.18 0 697.217 1120.1 0 667.27 1097.64 0 635.618 1073.9 0 602.419 1049 0 580.324 1032.43 0 549.721 1009.48 0 519.53 986.834 0 492.947 966.896 0 459.65 941.924 0 431.746 920.996 0 408.701 903.712 0 380.903 882.863 0 338.767 851.261 0 312.374 831.466 0 281.148 808.047 0 235.726 773.981 0 203.831 750.059 0 172.165 726.31 0 145.117 706.023 0 110.92 680.375 0 77.2377 655.113 0 50.7515 635.249 0 23.0535 614.475 0 6.94913 597.603 0 18.3291 589.068 0 42.1687 571.188 0 71.9807 548.829 0 102.577 525.882 0 124.098 509.741 0 157.997 484.316 0 207.054 447.524 0 225.378 433.781 0 252.187 413.674 0 300.284 377.601 0 327.954 356.848 0 359.558 333.145 0 386.592 312.87 0 425.653 283.574 0 451.555 264.147 0 483.41 240.256 0 507.015 222.552 0 550.135 190.212 0 574.339 172.059 0 603.836 149.936 0 631.848 128.927 0 665.547 103.652 0 698.983 78.5755 0 728.182 56.6766 0 746.363 43.0406 0 774.859 21.6684 0 793.243 3.75557 0 767.037 23.41 0 732.384 49.3997 0 708.125 67.594 0 677.88 90.2777 0 646.332 113.939 0 610.314 140.953 0 581.935 162.237 0 555.009 182.432 0 520.983 207.951 0 497.826 225.319 0 465.555 249.522 0 431.789 274.847 0 403.325 296.195 0 368.817 322.076 0 341.561 342.518 0 303.385 371.15 0 279.709 388.907 0 247.209 413.283 0 219.819 433.825 0 186.005 459.186 0 158.896 479.518 0 126.768 503.614 0 97.3408 525.684 0 62.6789 551.681 0 31.1843 575.302 0 9.271 591.737 0 0.1 598.35 0 2393.43 603.617 0 2368.08 622.629 0 2346.72 638.651 0 2314.58 662.755 0 2278.03 690.166 0 2229.08 726.874 0 2203.6 745.99 0 2179.57 764.01 0 2140.47 793.335 0 2114.05 813.152 0 2083.92 835.748 0 2045.29 864.719 0 2017.79 885.346 0 1985.99 909.195 0 1955.41 932.127 0 1933.45 948.6 0 1907.41 968.128 0 1881.96 987.215 0 1851.3 1010.21 0 1820.35 1033.43 0 1785.62 1059.48 0 1762.86 1076.55 0 1725.42 1104.62 0 1699.37 1124.16 0 1663.32 1151.2 0 1630.15 1176.08 0 1576.39 1198.35 0 1543.89 1198.35 0 1514.51 1198.35 0 1471.22 1198.35 0 1428.05 1198.35 0 1394.98 1198.35 0 1365.67 1198.35 0 1337.31 1198.35 0 1297.02 1198.35 0 1256.47 1198.35 0 1217.22 1198.35 0 1189.32 1198.35 0 1154.69 1198.35 0 1105.85 1198.35 0 1044.05 1198.35 0 1015.87 1198.35 0 993.689 1198.35 0</DataArray>
</Points>
<Verts>
 <DataArray type="Int64" Name="connectivity" format="ascii">0 1 2 3 4 5 6 7 8 9 10 11 12 13 14 15 16 17 18 19 20 21 22 23 24 25 26 27 28 29 30 31 32 33 34 35 36 37 38 39 40 41 42 43 44 45 46 47 48 49 50 51 52 53 54 55 56 57 58 59 60 61 62 63 64 65 66 67 68 69 70 71 72 73 74 75 76 77 78 79 80 81 82 83 84 85 86 87 88 89 90 91 92 93 94 95 96 97 98 99 100 101 102 103 104 105 106 107 108 109 110 111 112 113 114 115 116 117 118 119 120 121 122 123 124 125 126 127</DataArray>
 <DataArray type="Int64" Name="offsets" format="ascii">128</DataArray>
</Verts>
<Lines>
 <DataArray type="Int64" Name="connectivity" format="ascii"/>
 <DataArray type="Int64" Name="offsets" format="ascii"/>
</Lines>
<Stripes>
 <DataArray type="Int64" Name="connectivity" format="ascii"/>
 <DataArray type="Int64" Name="offsets" format="ascii"/>
</Stripes>
<Polys>
 <DataArray type="Int64" Name="connectivity" format="ascii"/>
 <DataArray type="Int64" Name="offsets" format="ascii"/>
</Polys>
</Piece>
</PolyData>
</VTKFile>