<?xml version="1.0" encoding="UTF-8" ?>
<VTKFile type="PolyData" version="0.1" order="LittleEndian">
<PolyData>
 <Piece NumberOfPoints="106" NumberOfVerts="1" NumberOfLines="0" NumberOfStrips="0" NumberOfPolys="0">
<PointData>
 <DataArray type="Float64" Name="speed" format="ascii">13.3269 12.4604 13.2942 12.3628 12.9353 12.3229 12.2377 13.1871 13.3162 12.6083 12.5378 12.6688 13.0235 13.3075 12.7209 12.2262 12.1341 13.0818 12.4856 12.9525 13.2399 12.9529 12.7207 13.0015 12.5302 12.8679 13.0903 13.2918 12.9027 12.1988 12.4664 12.3106 13.36 12.5111 12.3671 12.3073 12.937 12.2189 12.9987 12.3778 12.5428 12.7281 12.3656 13.2365 12.2883 12.6231 13.2754 12.8992 12.8257 12.397 12.7701 12.4775 12.76 12.1318 12.3611 12.1932 12.9387 12.4362 13.3166 12.7964 12.7813 12.9887 12.3574 13.3098 12.8515 12.2033 13.2485 12.3058 12.3216 12.549 13.3374 12.3559 13.0965 12.1757 13.3881 13.2431 12.4232 13.066 12.4361 13.0288 12.6326 13.3188 12.341 13.1058 13.0983 12.4796 12.4139 13.3002 12.9969 12.2676 12.4828 12.3401 13.0829 12.1319 13.2397 12.3887 13.0785 12.4705 12.2675 12.3584 12.7649 12.425 12.9345 12.7929 10.411 3.11437</DataArray>
</PointData>
<CellData/>
<Points>
 <DataArray type="Float64" Name="Points" NumberOfComponents="3" format="ascii">2362.19 568.834 0 2337.08 550.003 0 2311.87 531.091 0 2286.14 511.796 0 2241.5 478.318 0 2209.52 454.331 0 2187.45 437.779 0 2168.15 423.302 0 2118.2 385.845 0 2084.94 360.899 0 2058.98 341.429 0 2028.51 318.578 0 1992.21 291.348 0 1969.72 274.481 0 1914.5 233.066 0 1892.61 216.647 0 1866.4 196.993 0 1830.16 169.815 0 1801.47 148.297 0 1771.23 125.617 0 1735.74 98.9974 0 1707.48 77.7989 0 1671.66 50.9355 0 1651.56 35.8604 0 1620.99 12.9353 0 1567.85 -1.65 0 1544.35 -1.65 0 1497.12 -1.65 0 1451.32 -1.65 0 1415.91 -1.65 0 1393.06 -1.65 0 1356.15 -1.65 0 1319.68 -1.65 0 1278.1 -1.65 0 1236.19 -1.65 0 1200.92 -1.65 0 1164.12 -1.65 0 1046.02 -1.65 0 1022.96 -1.65 0 994.134 -1.65 0 2084.2 835.538 0 2062.44 851.854 0 2027.94 877.731 0 2003.27 896.232 0 1969.59 921.498 0 1948.29 937.472 0 1904.35 970.427 0 1882.69 986.668 0 1852.67 1009.19 0 1816.42 1036.37 0 1784.31 1060.46 0 1736.86 1096.04 0 1719.04 1109.4 0 1691.11 1130.36 0 1663.32 1151.2 0 1629.99 1176.2 0 1592.57 1198.35 0 1568.06 1198.35 0 1527.91 1198.35 0 1483.62 1198.35 0 1450.03 1198.35 0 1412.58 1198.35 0 1384.2 1198.35 0 1339.48 1198.35 0 1304.09 1198.35 0 1261.62 1198.35 0 1220.43 1198.35 0 1178.1 1198.35 0 1144.42 1198.35 0 1103.52 -1.65 0 1071.46 1198.35 0 1026.15 1198.35 0 994.127 1198.35 0 948.506 1198.35 0 913.879 1198.35 0 870.533 1198.35 0 834.698 1198.35 0 795.897 1194.08 0 771.566 1175.86 0 740.535 1152.59 0 710.9 1130.36 0 671.407 1100.74 0 649.355 1084.2 0 614.597 1058.13 0 585.397 1036.23 0 555.022 1013.45 0 526.96 992.406 0 496.699 969.711 0 463.658 944.93 0 432.561 921.607 0 411.655 289.947 0 385.443 886.268 0 361.672 868.44 0 330.878 845.344 0 300.021 822.202 0 277.503 390.562 0 245.747 414.379 0 228.058 768.229 0 198.068 745.736 0 168.6 723.636 0 135.794 699.031 0 104.743 675.743 0 83.0132 536.43 0 52.9704 636.913 0 25.4494 616.272 0 3.98434 595.661 0</DataArray>
</Points>
<Verts>
 <DataArray type="Int64" Name="connectivity" format="ascii">0 1 2 3 4 5 6 7 8 9 10 11 12 13 14 15 16 17 18 19 20 21 22 23 24 25 26 27 28 29 30 31 32 33 34 35 36 37 38 39 40 41 42 43 44 45 46 47 48 49 50 51 52 53 54 55 56 57 58 59 60 61 62 63 64 65 66 67 68 69 70 71 72 73 74 75 76 77 78 79 80 81 82 83 84 85 86 87 88 89 90 91 92 93 94 95 96 97 98 99 100 101 102 103 104 105</DataArray>
 <DataArray type="Int64" Name="offsets" format="ascii">106</DataArray>
</Verts>
<Lines>
 <DataArray type="Int64" Name="connectivity" format="ascii"/>
 <DataArray type="Int64" Name="offsets" format="ascii"/>
</Lines>
<Stripes>
 <DataArray type="Int64" Name="connectivity" format="ascii"/>
 <DataArray type="Int64" Name="offsets" format="ascii"/>
</Stripes>
<Polys>
 <DataArray type="Int64" Name="connectivity" format="ascii"/>
 <DataArray type="Int64" Name="offsets" format="ascii"/>
</Polys>
</Piece>
</PolyData>
</VTKFile>