<?xml version="1.0" encoding="UTF-8" ?>
<VTKFile type="PolyData" version="0.1" order="LittleEndian">
<PolyData>
 <Piece NumberOfPoints="60" NumberOfVerts="1" NumberOfLines="0" NumberOfStrips="0" NumberOfPolys="0">
<PointData>
 <DataArray type="Float64" Name="speed" format="ascii">12.2767 12.5762 13.0534 12.5102 12.3952 12.1469 12.7055 12.2556 13.0664 12.4714 12.3965 13.2489 12.959 12.5941 12.4623 12.4728 12.9719 13.2489 12.5708 12.2292 12.3112 13.1644 13.3227 12.2487 13.2207 13.0537 12.9798 12.1175 12.1803 12.5465 12.5559 12.9321 12.6641 13.2678 12.1108 12.2023 12.7518 12.1326 13.1556 12.4087 13.2917 12.6132 12.7612 13.2233 12.9983 12.7487 13.2969 12.2263 12.6359 12.7046 12.5212 12.8513 13.1575 12.7268 12.7604 12.209 13.1463 12.6801 13.0451 13.3154</DataArray>
</PointData>
<CellData/>
<Points>
 <DataArray type="Float64" Name="Points" NumberOfComponents="3" format="ascii">2378.16 580.809 0 2345.59 556.387 0 2314.8 533.289 0 2289.22 514.107 0 2251.43 485.767 0 2220.66 462.689 0 2193.48 442.302 0 2161.1 418.016 0 2134.39 397.985 0 2099.04 371.476 0 2077.28 355.151 0 2043.29 329.657 0 2009.97 304.671 0 1978.67 281.198 0 1950.69 260.208 0 1912.99 231.936 0 1893.33 217.19 0 1855.14 188.551 0 1825.52 166.336 0 1804.7 150.715 0 1769.36 124.214 0 1729.88 94.6017 0 1709.45 79.277 0 1684.17 60.3231 0 1646.92 32.3793 0 1614.51 8.07464 0 1565.13 -1.65 0 1535.18 -1.65 0 1506.97 -1.65 0 1466.87 -1.65 0 1419.24 -1.65 0 1389.59 -1.65 0 1348.24 -1.65 0 1305.42 -1.65 0 1274.18 -1.65 0 1225.99 -1.65 0 1186.13 -1.65 0 1135.14 -1.65 0 1102.45 -1.65 0 1065.97 -1.65 0 1033.35 -1.65 0 993.779 -1.65 0 944.062 -1.65 0 903.737 -1.65 0 880.306 -1.65 0 825.051 -1.65 0 801.354 -1.50779 0 766.521 23.7966 0 734.918 47.4992 0 703.77 70.8602 0 678.577 89.7554 0 641.624 117.47 0 610.312 140.954 0 580.696 163.166 0 550.393 185.893 0 527.942 202.732 0 496.791 226.095 0 461.149 252.827 0 432.758 274.12 0 403.051 296.4 0</DataArray>
</Points>
<Verts>
 <DataArray type="Int64" Name="connectivity" format="ascii">0 1 2 3 4 5 6 7 8 9 10 11 12 13 14 15 16 17 18 19 20 21 22 23 24 25 26 27 28 29 30 31 32 33 34 35 36 37 38 39 40 41 42 43 44 45 46 47 48 49 50 51 52 53 54 55 56 57 58 59</DataArray>
 <DataArray type="Int64" Name="offsets" format="ascii">60</DataArray>
</Verts>
<Lines>
 <DataArray type="Int64" Name="connectivity" format="ascii"/>
 <DataArray type="Int64" Name="offsets" format="ascii"/>
</Lines>
<Stripes>
 <DataArray type="Int64" Name="connectivity" format="ascii"/>
 <DataArray type="Int64" Name="offsets" format="ascii"/>
</Stripes>
<Polys>
 <DataArray type="Int64" Name="connectivity" format="ascii"/>
 <DataArray type="Int64" Name="offsets" format="ascii"/>
</Polys>
</Piece>
</PolyData>
</VTKFile>