<?xml version="1.0" encoding="UTF-8" ?>
<VTKFile type="PolyData" version="0.1" order="LittleEndian">
<PolyData>
 <Piece NumberOfPoints="106" NumberOfVerts="1" NumberOfLines="0" NumberOfStrips="0" NumberOfPolys="0">
<PointData>
 <DataArray type="Float64" Name="speed" format="ascii">12.5159 12.6718 12.4705 13.2693 13.0566 12.8597 13.1536 13.2996 13.1438 12.7658 13.0652 13.1022 13.3081 13.0308 13.0411 12.8389 12.8197 8.73438 9.91309 13.0747 12.1366 12.1691 12.6509 12.1612 12.4372 12.3798 12.1648 13.0077 13.211 12.8884 13.0214 13.3273 13.386 12.7914 12.7617 12.5414 12.5827 12.3429 13.0029 12.304 12.8347 13.2659 12.6745 12.2936 12.6286 12.1112 12.856 12.8989 12.7923 12.803 12.3047 12.1377 13.3433 12.9058 12.633 12.4576 13.2414 13.038 13.0296 12.9599 12.9002 13.1708 12.9402 12.1634 12.3852 12.7651 12.6426 13.2891 12.6912 12.6846 13.0762 12.6774 12.8176 12.3964 13.0065 12.2523 12.8509 12.1473 12.2099 13.323 12.5365 13.2129 12.5214 12.4678 12.9242 12.2002 12.8875 13.2553 12.3529 12.3434 13.202 12.3272 12.5129 12.3735 12.1493 12.5203 10.1546 3.72127 13.236 12.4371 12.9373 12.8523 12.3389 12.7618 12.5509 12.3462</DataArray>
</PointData>
<CellData/>
<Points>
 <DataArray type="Float64" Name="Points" NumberOfComponents="3" format="ascii">2139.72 401.981 0 2109.67 379.443 0 2048.97 333.92 0 2027.25 317.63 0 1997.06 294.988 0 1977.06 279.986 0 1947.35 257.706 0 1912.9 231.869 0 1892.09 216.26 0 1869.75 199.503 0 1824.67 165.697 0 1792.68 141.703 0 1763.5 119.814 0 1736.6 99.6415 0 1693.17 67.0722 0 1658.45 41.0292 0 1632.43 21.5169 0 1604.47 0.856307 0 1599.35 19.5378 0 1599.35 61.9591 0 1599.35 104.485 0 1599.35 140.241 0 1599.35 165.176 0 1599.35 199.899 0 1599.35 250.879 0 1599.35 288.053 0 1599.35 317.586 0 1599.35 362.573 0 1599.35 406.129 0 1599.35 433.114 0 1599.35 469.4 0 1599.35 516.552 0 1599.35 563.386 0 2075.81 354.048 0 1599.35 620.64 0 1599.35 663.138 0 1599.35 696.984 0 1599.35 737.388 0 1599.35 785.566 0 1599.35 809.409 0 1599.35 845.869 0 1599.35 900.311 0 1599.35 927.515 0 1599.35 958.291 0 1599.35 996.361 0 1721.52 1107.55 0 1696.19 1126.55 0 1661.08 1152.88 0 1627.33 1178.19 0 1606.23 1194.02 0 1570.26 1198.35 0 1519.44 1198.35 0 1489.74 -1.65 0 1458.04 1198.35 0 1419.23 1198.35 0 1384.96 1198.35 0 1344.61 1198.35 0 1311.08 -1.65 0 1264.18 1198.35 0 1230.54 1198.35 0 1187.19 -1.65 0 1161.76 1198.35 0 1119.11 1198.35 0 1075.19 1198.35 0 1049.81 1198.35 0 1000.38 1198.35 0 958.655 1198.35 0 934.572 1198.35 0 890.617 1198.35 0 856.327 1198.35 0 819.298 1198.35 0 775.279 1178.65 0 741.802 1153.54 0 714.818 1133.3 0 683.571 1109.87 0 658.717 1091.22 0 622.948 1064.4 0 591.717 1040.97 0 563.837 1020.06 0 534.094 997.757 0 503.566 974.861 0 472.46 951.531 0 443.593 929.881 0 415.018 908.45 0 382.118 883.775 0 344.873 855.841 0 316.395 834.482 0 286.963 812.408 0 260.271 792.389 0 229.635 426.463 0 188.921 738.877 0 159.403 716.738 0 130.71 695.218 0 104.209 675.342 0 75.0249 542.421 0 48.4538 633.525 0 24.7421 615.742 0 4.57454 600.962 0 2398.76 596.218 0 2368.17 573.323 0 2339.81 552.046 0 2302.7 524.214 0 2279.91 507.127 0 2243.15 479.557 0 2212.05 456.227 0 2169.64 424.42 0</DataArray>
</Points>
<Verts>
 <DataArray type="Int64" Name="connectivity" format="ascii">0 1 2 3 4 5 6 7 8 9 10 11 12 13 14 15 16 17 18 19 20 21 22 23 24 25 26 27 28 29 30 31 32 33 34 35 36 37 38 39 40 41 42 43 44 45 46 47 48 49 50 51 52 53 54 55 56 57 58 59 60 61 62 63 64 65 66 67 68 69 70 71 72 73 74 75 76 77 78 79 80 81 82 83 84 85 86 87 88 89 90 91 92 93 94 95 96 97 98 99 100 101 102 103 104 105</DataArray>
 <DataArray type="Int64" Name="offsets" format="ascii">106</DataArray>
</Verts>
<Lines>
 <DataArray type="Int64" Name="connectivity" format="ascii"/>
 <DataArray type="Int64" Name="offsets" format="ascii"/>
</Lines>
<Stripes>
 <DataArray type="Int64" Name="connectivity" format="ascii"/>
 <DataArray type="Int64" Name="offsets" format="ascii"/>
</Stripes>
<Polys>
 <DataArray type="Int64" Name="connectivity" format="ascii"/>
 <DataArray type="Int64" Name="offsets" format="ascii"/>
</Polys>
</Piece>
</PolyData>
</VTKFile>