<?xml version="1.0" encoding="UTF-8" ?>
<VTKFile type="PolyData" version="0.1" order="LittleEndian">
<PolyData>
 <Piece NumberOfPoints="82" NumberOfVerts="1" NumberOfLines="0" NumberOfStrips="0" NumberOfPolys="0">
<PointData>
 <DataArray type="Float64" Name="speed" format="ascii">4.31205 11.555 12.2195 12.6173 13.2252 12.2303 13.213 12.2744 12.4886 12.951 13.1205 12.5518 12.8821 12.2299 12.378 13.0012 13.1747 13.271 13.3504 12.1688 12.9704 13.2697 12.5489 13.2007 13.3303 12.6583 12.1717 12.7492 12.9193 12.8648 13.2764 13.2327 12.5798 12.2695 12.4973 13.0206 13.0382 12.5705 13.3785 12.9153 12.3233 13.3281 13.146 12.2822 12.1574 12.3627 12.2118 12.3701 12.5602 12.6751 12.5124 13.2225 12.8273 13.1376 12.7763 12.8227 12.7335 12.1249 12.1424 13.3314 12.2929 12.4298 12.3455 12.7016 12.2907 13.3498 12.5731 12.4585 13.0628 12.3559 13.0177 13.1214 13.0723 13.3684 12.2792 12.1702 12.3429 13.0722 12.4586 13.1225 7.22518 1.57901</DataArray>
</PointData>
<CellData/>
<Points>
 <DataArray type="Float64" Name="Points" NumberOfComponents="3" format="ascii">2397.57 600.51 0 2381.22 612.774 0 2347.7 637.913 0 2322.1 538.765 0 2307.78 667.856 0 2273.33 693.691 0 2248.12 712.596 0 2207.02 743.42 0 2172.67 769.184 0 2149.02 786.926 0 2132.86 396.838 0 2091.45 830.098 0 2052.73 859.143 0 2036.98 324.924 0 2001.79 897.344 0 1967.48 923.08 0 1949.26 259.137 0 1921.68 957.43 0 1890.11 981.103 0 1850.67 185.194 0 1822.78 164.277 0 1801.83 1047.32 0 1767.34 1073.18 0 1754.21 112.851 0 1722.45 89.0311 0 1698.4 70.9901 0 1674.53 1142.79 0 1643.02 1166.42 0 1623.27 14.6475 0 1583.91 1198.35 0 1551.78 1198.35 0 1530.33 -1.65 0 1483.58 -1.65 0 1441.03 1198.35 0 1411.65 1198.35 0 1381.66 -1.65 0 1344.96 1198.35 0 1307.07 1198.35 0 1269.11 -1.65 0 1233.74 -1.65 0 1199.97 -1.65 0 1170.54 1198.35 0 1131.94 1198.35 0 1100.78 -1.65 0 1066.99 -1.65 0 1020.32 1198.35 0 984.37 1198.35 0 958.722 -1.65 0 909.87 -1.65 0 878.994 -1.65 0 855.987 1198.35 0 818.226 1198.35 0 790.257 5.99479 0 755.117 32.3502 0 726.764 53.6151 0 696.89 76.0206 0 674.263 1102.88 0 647.145 1082.55 0 626.559 128.769 0 596.991 1044.93 0 569.457 171.595 0 537.984 195.2 0 515.288 983.653 0 481.515 237.552 0 453.772 258.359 0 430.718 920.225 0 398.742 896.242 0 374.789 317.597 0 344.617 340.227 0 321.346 838.195 0 292.259 816.38 0 267.933 397.739 0 231.119 425.35 0 202.169 447.063 0 171.007 470.434 0 151.499 710.81 0 120.964 687.908 0 94.2329 528.015 0 67.3561 548.173 0 42.5069 629.065 0 13.8264 607.555 0 1.39836 597.451 0</DataArray>
</Points>
<Verts>
 <DataArray type="Int64" Name="connectivity" format="ascii">0 1 2 3 4 5 6 7 8 9 10 11 12 13 14 15 16 17 18 19 20 21 22 23 24 25 26 27 28 29 30 31 32 33 34 35 36 37 38 39 40 41 42 43 44 45 46 47 48 49 50 51 52 53 54 55 56 57 58 59 60 61 62 63 64 65 66 67 68 69 70 71 72 73 74 75 76 77 78 79 80 81</DataArray>
 <DataArray type="Int64" Name="offsets" format="ascii">82</DataArray>
</Verts>
<Lines>
 <DataArray type="Int64" Name="connectivity" format="ascii"/>
 <DataArray type="Int64" Name="offsets" format="ascii"/>
</Lines>
<Stripes>
 <DataArray type="Int64" Name="connectivity" format="ascii"/>
 <DataArray type="Int64" Name="offsets" format="ascii"/>
</Stripes>
<Polys>
 <DataArray type="Int64" Name="connectivity" format="ascii"/>
 <DataArray type="Int64" Name="offsets" format="ascii"/>
</Polys>
</Piece>
</PolyData>
</VTKFile>