<?xml version="1.0" encoding="UTF-8" ?>
<VTKFile type="PolyData" version="0.1" order="LittleEndian">
<PolyData>
 <Piece NumberOfPoints="79" NumberOfVerts="1" NumberOfLines="0" NumberOfStrips="0" NumberOfPolys="0">
<PointData>
 <DataArray type="Float64" Name="speed" format="ascii">0.00131502 12.6983 12.7291 13.0326 12.9641 12.4085 12.9136 13.0087 12.4364 12.2931 12.8032 12.3712 12.1842 12.7256 13.145 13.0851 13.2986 13.3216 13.3165 12.7071 12.246 12.6125 13.248 13.0481 12.6595 12.16 12.2361 12.9821 12.7209 12.6033 13.3233 13.092 12.6661 12.6688 12.757 12.1356 13.1182 13.0591 12.1854 12.2289 12.2123 12.9881 13.0481 12.6792 12.5129 12.6205 12.1365 12.6677 12.8356 12.6629 12.6705 12.485 12.3364 12.8251 12.2123 13.1353 12.8471 12.691 12.342 12.8709 12.2387 12.8909 12.4523 13.1792 12.3855 13.1338 13.1836 12.8372 12.4022 12.6712 13.0418 12.1415 12.3505 12.9131 13.1597 12.6844 12.2739 8.10679 2.55067</DataArray>
</PointData>
<CellData/>
<Points>
 <DataArray type="Float64" Name="Points" NumberOfComponents="3" format="ascii">2398.01 600.181 0 2400.25 597.23 0 2366.37 571.968 0 2339.75 643.871 0 2305.16 669.821 0 2290.59 515.133 0 2259 491.44 0 2227.48 728.079 0 2205.3 451.17 0 2164.45 420.534 0 2144.94 405.901 0 2105.53 376.343 0 2083.76 360.013 0 2050.76 335.26 0 2017.63 310.414 0 1994.13 292.788 0 1951.11 260.525 0 1922.86 239.341 0 1885.06 210.987 0 1859.39 191.732 0 1829.37 169.22 0 1806.05 151.727 0 1786.94 137.394 0 1745.97 106.668 0 1717.95 85.6558 0 1685.49 1134.57 0 1657.48 1155.58 0 1638.67 26.1922 0 1593.57 -1.65 0 1562.95 -1.65 0 1536.93 -1.65 0 1485.98 -1.65 0 1447.27 -1.65 0 1412.37 -1.65 0 1365 -1.65 0 1318.75 -1.65 0 1294.49 1198.35 0 1261.62 1198.35 0 1236.88 -1.65 0 1191.63 -1.65 0 1160.37 -1.65 0 1129.34 1198.35 0 1099.01 -1.65 0 1068.24 -1.65 0 1026.96 -1.65 0 984.908 -1.65 0 946.856 -1.65 0 799.35 1075.31 0 885.047 -1.65 0 847.092 -1.65 0 811.439 -1.65 0 776.79 16.0947 0 744.241 40.507 0 717.367 60.6623 0 685.135 84.8364 0 655.12 107.348 0 627.123 128.346 0 594.41 152.88 0 562.714 176.653 0 531.256 200.246 0 501.444 222.606 0 470.123 246.096 0 439.989 268.697 0 421.366 913.211 0 394.491 893.055 0 370.73 320.642 0 331.503 350.061 0 306.949 827.398 0 292.834 379.064 0 257.504 405.561 0 225.229 429.767 0 191.243 455.257 0 160.095 478.618 0 131.693 499.92 0 108.322 517.448 0 67.785 547.851 0 43.8738 565.785 0 17.1732 585.81 0 2.19732 596.898 0</DataArray>
</Points>
<Verts>
 <DataArray type="Int64" Name="connectivity" format="ascii">0 1 2 3 4 5 6 7 8 9 10 11 12 13 14 15 16 17 18 19 20 21 22 23 24 25 26 27 28 29 30 31 32 33 34 35 36 37 38 39 40 41 42 43 44 45 46 47 48 49 50 51 52 53 54 55 56 57 58 59 60 61 62 63 64 65 66 67 68 69 70 71 72 73 74 75 76 77 78</DataArray>
 <DataArray type="Int64" Name="offsets" format="ascii">79</DataArray>
</Verts>
<Lines>
 <DataArray type="Int64" Name="connectivity" format="ascii"/>
 <DataArray type="Int64" Name="offsets" format="ascii"/>
</Lines>
<Stripes>
 <DataArray type="Int64" Name="connectivity" format="ascii"/>
 <DataArray type="Int64" Name="offsets" format="ascii"/>
</Stripes>
<Polys>
 <DataArray type="Int64" Name="connectivity" format="ascii"/>
 <DataArray type="Int64" Name="offsets" format="ascii"/>
</Polys>
</Piece>
</PolyData>
</VTKFile>