<?xml version="1.0" encoding="UTF-8" ?>
<VTKFile type="PolyData" version="0.1" order="LittleEndian">
<PolyData>
 <Piece NumberOfPoints="83" NumberOfVerts="1" NumberOfLines="0" NumberOfStrips="0" NumberOfPolys="0">
<PointData>
 <DataArray type="Float64" Name="speed" format="ascii">0.598729 2.05353 12.4366 12.4749 12.4793 12.5642 12.1544 12.3323 12.4452 12.1625 12.8637 13.2999 13.3899 12.4322 12.4543 12.2912 12.8969 13.2805 12.2888 12.9564 12.65 12.709 12.9951 13.328 13.2201 12.1432 12.8975 12.507 12.3627 12.8613 12.9164 12.2286 13.3987 13.3665 13.0988 12.715 12.5437 12.5145 12.6614 12.8549 12.1264 13.3317 13.0898 12.7063 12.2957 12.8683 12.2489 12.22 13.1705 13.0336 12.2248 12.4625 12.1909 12.6676 13.1344 13.0992 12.7929 12.4917 12.4696 13.1539 12.7285 12.2532 13.1211 12.8037 13.1268 13.1188 12.2275 13.3529 13.0187 13.1134 12.8371 12.9222 12.6925 12.98 13.3674 12.6381 13.0822 12.6458 12.9921 12.7843 12.3977 5.82264 0.951311</DataArray>
</PointData>
<CellData/>
<Points>
 <DataArray type="Float64" Name="Points" NumberOfComponents="3" format="ascii">2397.59 600.497 0 2390.73 605.64 0 2395.5 593.816 0 2357.42 565.255 0 2321.33 657.692 0 2306.19 526.834 0 2280.48 507.555 0 2234.59 473.137 0 2214.39 457.987 0 2190.1 756.115 0 2155.29 782.218 0 2138.07 400.748 0 2093.46 367.287 0 2067.04 347.475 0 2046.39 863.895 0 2014.42 308.01 0 1983.23 911.268 0 1956.26 264.385 0 1933.81 247.549 0 1893.36 217.214 0 1874.83 992.564 0 1852.59 1009.24 0 1830.27 169.898 0 1800.53 147.593 0 1768.17 1072.56 0 1744 1090.69 0 1725.16 91.0609 0 1691.08 65.5009 0 1671.9 1144.76 0 1641.62 28.4051 0 1612.43 6.51584 0 1572.33 1198.35 0 1536.74 1198.35 0 1514.33 -1.65 0 1462.43 -1.65 0 1435.55 -1.65 0 1393.51 1198.35 0 1362.7 1198.35 0 1333.26 -1.65 0 1299.63 -1.65 0 1264.62 1198.35 0 1235.47 1198.35 0 1205.59 -1.65 0 1162.66 -1.65 0 1133.09 -1.65 0 1101.43 1198.35 0 1060.08 1198.35 0 1022.4 -1.65 0 990.023 -1.65 0 954.944 1198.35 0 934.662 -1.65 0 884.377 -1.65 0 846.323 -1.65 0 808.162 1198.35 0 775.363 17.1655 0 752.265 34.4886 0 721.957 1138.65 0 693.38 78.6526 0 657.243 105.755 0 631.712 124.904 0 609.122 141.847 0 574.31 167.956 0 540.917 1002.87 0 525.292 204.72 0 490.301 230.963 0 466.797 248.591 0 438.848 926.323 0 421.84 282.309 0 384.064 310.641 0 360.912 328.005 0 320.719 837.726 0 298.124 375.096 0 268.085 397.626 0 234.395 422.893 0 202.001 748.686 0 172.982 468.953 0 151.676 484.933 0 127.84 693.065 0 106.516 518.803 0 74.5081 542.809 0 47.2572 563.247 0 11.9596 589.72 0 0.882227 597.809 0</DataArray>
</Points>
<Verts>
 <DataArray type="Int64" Name="connectivity" format="ascii">0 1 2 3 4 5 6 7 8 9 10 11 12 13 14 15 16 17 18 19 20 21 22 23 24 25 26 27 28 29 30 31 32 33 34 35 36 37 38 39 40 41 42 43 44 45 46 47 48 49 50 51 52 53 54 55 56 57 58 59 60 61 62 63 64 65 66 67 68 69 70 71 72 73 74 75 76 77 78 79 80 81 82</DataArray>
 <DataArray type="Int64" Name="offsets" format="ascii">83</DataArray>
</Verts>
<Lines>
 <DataArray type="Int64" Name="connectivity" format="ascii"/>
 <DataArray type="Int64" Name="offsets" format="ascii"/>
</Lines>
<Stripes>
 <DataArray type="Int64" Name="connectivity" format="ascii"/>
 <DataArray type="Int64" Name="offsets" format="ascii"/>
</Stripes>
<Polys>
 <DataArray type="Int64" Name="connectivity" format="ascii"/>
 <DataArray type="Int64" Name="offsets" format="ascii"/>
</Polys>
</Piece>
</PolyData>
</VTKFile>