<?xml version="1.0" encoding="UTF-8" ?>
<VTKFile type="PolyData" version="0.1" order="LittleEndian">
<PolyData>
 <Piece NumberOfPoints="80" NumberOfVerts="1" NumberOfLines="0" NumberOfStrips="0" NumberOfPolys="0">
<PointData>
 <DataArray type="Float64" Name="speed" format="ascii">12.221 12.8387 13.2493 12.8054 13.3961 12.7591 12.3193 12.7738 12.3998 12.6084 12.9547 13.2031 13.2889 12.3941 13.3208 12.5439 12.5578 12.4434 12.343 13.2783 12.1518 12.8415 13.3108 12.8971 12.7477 12.248 12.4344 13.3365 12.8782 10.5545 3.88461 0 0.0805373 12.4386 12.5742 12.9279 13.2881 12.6241 12.9868 12.9621 12.7398 12.677 12.5843 13.1653 13.3189 12.8907 12.9285 13.1315 12.3051 12.9759 13.2986 12.4287 12.4817 13.0494 12.2046 13.007 12.6204 13.0541 12.923 13.276 12.4095 12.6529 13.0271 12.2207 12.285 12.8659 12.5013 13.0149 12.6502 12.9245 12.3186 12.6402 12.8161 13.166 12.1551 12.2388 12.9825 12.6245 12.2801 12.5981</DataArray>
</PointData>
<CellData/>
<Points>
 <DataArray type="Float64" Name="Points" NumberOfComponents="3" format="ascii">896.445 -1.65 0 851.818 -1.65 0 831.935 1198.35 0 788.989 1188.93 0 768.515 22.3012 0 733.274 48.7323 0 708.014 67.677 0 676.709 1104.72 0 646.472 1082.04 0 629.602 126.487 0 595.931 151.74 0 564.874 1020.84 0 549.921 186.248 0 508.335 217.437 0 482.056 237.147 0 446.683 263.676 0 422.093 282.119 0 394.46 302.844 0 361.903 327.262 0 334.784 347.601 0 290.96 380.469 0 262.03 402.167 0 230.639 425.71 0 201.326 447.695 0 172.201 469.539 0 143.102 491.363 0 119.531 509.041 0 86.6117 533.731 0 53.3085 558.708 0 25.0153 615.947 0 4.88198 601.142 0 0.1 598.35 0 2397.97 600.207 0 2387.61 587.899 0 2353.33 633.693 0 2330.5 650.814 0 2296.15 519.306 0 2272.51 694.308 0 2239.87 718.785 0 2221.54 732.535 0 2201.25 448.13 0 2158.24 415.873 0 2129.45 801.598 0 2096.13 826.589 0 2073.98 352.68 0 2039.34 869.183 0 2001 897.935 0 1986.18 286.831 0 1963.74 270.001 0 1939.53 944.042 0 1913.91 963.255 0 1882.43 209.017 0 1862.12 1002.1 0 1821.07 1032.89 0 1799.55 146.852 0 1762.21 1077.03 0 1732.83 1099.07 0 1709.55 79.3553 0 1671.41 1145.13 0 1636.65 1171.2 0 1610.96 5.40899 0 1562.83 -1.65 0 1543.88 1198.35 0 1500.22 1198.35 0 1477.16 -1.65 0 1439.77 -1.65 0 1396.89 -1.65 0 1372.91 1198.35 0 1330.87 1198.35 0 1291.62 -1.65 0 1266.89 -1.65 0 1209.7 -1.65 0 1179.67 -1.65 0 1148.78 1198.35 0 1108.66 1198.35 0 1077.99 -1.65 0 1044.17 -1.65 0 1002.89 1198.35 0 962.175 -1.65 0 921.811 -1.65 0</DataArray>
</Points>
<Verts>
 <DataArray type="Int64" Name="connectivity" format="ascii">0 1 2 3 4 5 6 7 8 9 10 11 12 13 14 15 16 17 18 19 20 21 22 23 24 25 26 27 28 29 30 31 32 33 34 35 36 37 38 39 40 41 42 43 44 45 46 47 48 49 50 51 52 53 54 55 56 57 58 59 60 61 62 63 64 65 66 67 68 69 70 71 72 73 74 75 76 77 78 79</DataArray>
 <DataArray type="Int64" Name="offsets" format="ascii">80</DataArray>
</Verts>
<Lines>
 <DataArray type="Int64" Name="connectivity" format="ascii"/>
 <DataArray type="Int64" Name="offsets" format="ascii"/>
</Lines>
<Stripes>
 <DataArray type="Int64" Name="connectivity" format="ascii"/>
 <DataArray type="Int64" Name="offsets" format="ascii"/>
</Stripes>
<Polys>
 <DataArray type="Int64" Name="connectivity" format="ascii"/>
 <DataArray type="Int64" Name="offsets" format="ascii"/>
</Polys>
</Piece>
</PolyData>
</VTKFile>