<?xml version="1.0" encoding="UTF-8" ?>
<VTKFile type="PolyData" version="0.1" order="LittleEndian">
<PolyData>
 <Piece NumberOfPoints="76" NumberOfVerts="1" NumberOfLines="0" NumberOfStrips="0" NumberOfPolys="0">
<PointData>
 <DataArray type="Float64" Name="speed" format="ascii">12.3308 12.1999 12.2124 12.1952 12.1306 13.1178 12.2421 12.3015 12.2658 12.3356 12.3339 12.8377 12.4035 12.4709 12.807 12.9221 13.275 12.7182 13.2032 12.7021 12.3761 12.7341 13.1574 12.1704 12.2475 12.8766 12.7922 13.0435 12.1882 13.0294 12.848 12.7545 13.3355 12.3511 13.1462 12.3638 13.2151 12.7772 12.3571 12.1373 12.5509 12.7506 12.1508 12.2639 12.4302 12.8426 12.778 12.9253 12.7905 12.8269 12.3193 13.2015 12.4746 12.5642 13.1496 12.9263 13.0687 12.5581 13.0599 12.2657 12.9643 12.9578 12.6053 12.5505 12.4808 12.6073 13.0242 12.612 12.8986 13.3988 12.5651 12.8614 12.913 12.6313 9.73293 3.88761</DataArray>
</PointData>
<CellData/>
<Points>
 <DataArray type="Float64" Name="Points" NumberOfComponents="3" format="ascii">2379.47 581.797 0 2344.94 555.9 0 2315.71 533.974 0 2290.98 515.424 0 2252.1 486.265 0 2231.41 470.75 0 2206.93 452.391 0 2165.73 421.489 0 2140.62 402.658 0 2096.63 369.668 0 2073.3 352.164 0 2052.8 336.792 0 2013.33 307.193 0 1986.4 286.99 0 1943.82 255.056 0 1911.39 230.737 0 1888.43 213.513 0 1857.09 190.011 0 1828.43 168.517 0 1790.93 140.387 0 1766.2 121.842 0 1731.33 95.6928 0 1710.28 79.9019 0 1674.44 53.0246 0 1632.35 21.4546 0 1609.66 4.441 0 1574.82 -1.65 0 1544.27 -1.65 0 1488.87 1198.35 0 1459.77 1198.35 0 1443.67 -1.65 0 1400.37 -1.65 0 1373.14 1198.35 0 1332.51 1198.35 0 1297.49 -1.65 0 1262.55 -1.65 0 1230.96 1198.35 0 1189.13 1198.35 0 1140.64 1198.35 0 1116.46 1198.35 0 1079.38 1198.35 0 1031.94 1198.35 0 998.451 1198.35 0 963.931 1198.35 0 929.252 1198.35 0 893.527 1198.35 0 848.813 1198.35 0 807.395 1198.35 0 779.55 1181.85 0 748.261 1158.38 0 708.64 1128.67 0 690.223 1114.85 0 658.842 1091.32 0 615.816 1059.05 0 592.274 1041.39 0 562.667 1019.19 0 532.834 996.812 0 504.29 975.404 0 472.033 951.211 0 454.037 258.161 0 422.026 913.706 0 397.51 895.318 0 365.058 870.98 0 334.955 848.402 0 307.671 827.939 0 290.493 380.82 0 265.87 796.589 0 238.671 776.189 0 207.198 752.584 0 179.15 731.548 0 143.436 704.762 0 115.272 683.64 0 82.2262 658.855 0 50.1182 634.774 0 22.4129 613.995 0 5.65854 601.595 0</DataArray>
</Points>
<Verts>
 <DataArray type="Int64" Name="connectivity" format="ascii">0 1 2 3 4 5 6 7 8 9 10 11 12 13 14 15 16 17 18 19 20 21 22 23 24 25 26 27 28 29 30 31 32 33 34 35 36 37 38 39 40 41 42 43 44 45 46 47 48 49 50 51 52 53 54 55 56 57 58 59 60 61 62 63 64 65 66 67 68 69 70 71 72 73 74 75</DataArray>
 <DataArray type="Int64" Name="offsets" format="ascii">76</DataArray>
</Verts>
<Lines>
 <DataArray type="Int64" Name="connectivity" format="ascii"/>
 <DataArray type="Int64" Name="offsets" format="ascii"/>
</Lines>
<Stripes>
 <DataArray type="Int64" Name="connectivity" format="ascii"/>
 <DataArray type="Int64" Name="offsets" format="ascii"/>
</Stripes>
<Polys>
 <DataArray type="Int64" Name="connectivity" format="ascii"/>
 <DataArray type="Int64" Name="offsets" format="ascii"/>
</Polys>
</Piece>
</PolyData>
</VTKFile>