<?xml version="1.0" encoding="UTF-8" ?>
<VTKFile type="PolyData" version="0.1" order="LittleEndian">
<PolyData>
 <Piece NumberOfPoints="79" NumberOfVerts="1" NumberOfLines="0" NumberOfStrips="0" NumberOfPolys="0">
<PointData>
 <DataArray type="Float64" Name="speed" format="ascii">13.1634 12.9507 12.9774 12.6452 12.9151 12.9673 12.6789 12.2278 13.3735 12.9044 12.618 12.9327 13.404 13.1565 12.971 12.269 12.6195 12.9788 12.3988 12.2622 13.3286 13.0069 12.3879 12.3905 12.7014 12.7153 12.8657 13.2398 12.1246 12.4214 12.9028 13.1251 13.1503 12.6705 12.7708 13.0183 13.0395 12.8358 12.3559 12.8257 13.2465 12.9301 12.5818 12.1932 12.7253 12.7555 12.1382 12.7938 13.2188 12.7439 12.1652 12.2136 12.5738 12.7926 13.2926 12.2496 13.0843 13.1191 13.2298 12.2456 13.0167 12.5062 12.636 13.2246 12.7178 12.8727 12.617 13.2945 12.6191 12.7988 12.7617 12.8006 12.4886 12.2458 12.99 6.97878 1.37121 0.0116027 12.3128</DataArray>
</PointData>
<CellData/>
<Points>
 <DataArray type="Float64" Name="Points" NumberOfComponents="3" format="ascii">2356.65 564.678 0 2321.37 538.22 0 2307.7 667.911 0 2257.5 705.56 0 2242.3 478.921 0 2215.61 458.899 0 2182.25 433.883 0 2153.06 783.892 0 2121.66 807.443 0 2107.16 377.566 0 2074.14 352.799 0 2041.82 867.32 0 2021.46 313.286 0 1981.63 283.417 0 1958.97 266.417 0 1922.56 239.109 0 1899.96 222.159 0 1867.32 197.685 0 1832.71 171.725 0 1809.15 154.058 0 1766.86 122.335 0 1740.09 102.262 0 1701.36 73.2091 0 1676.28 54.4019 0 1645.2 31.0925 0 1621.91 13.6251 0 1601.57 -0.981713 0 1552.61 -1.65 0 1517.4 -1.65 0 1475.12 1198.35 0 1440.89 1198.35 0 1417.79 -1.65 0 1367.46 -1.65 0 1334.68 -1.65 0 1306.54 -1.65 0 1256.9 -1.65 0 1218.79 -1.65 0 1181.37 -1.65 0 1134.93 -1.65 0 1091.64 -1.65 0 1066.32 1198.35 0 1033.88 1198.35 0 1008 -1.65 0 961.061 -1.65 0 931.319 -1.65 0 897.717 1198.35 0 870.337 -1.65 0 837.741 -1.65 0 799.105 -1.03463 0 762.184 27.0493 0 735.87 46.7854 0 708.731 1128.74 0 684.245 85.5043 0 653.727 108.392 0 627.025 128.42 0 595.185 152.299 0 560.13 178.59 0 532.059 199.644 0 502.311 221.955 0 472.805 244.085 0 443.786 265.849 0 410.231 291.016 0 379.801 313.838 0 349.365 336.665 0 318.059 360.145 0 285.861 384.293 0 257.126 405.845 0 237.554 775.351 0 211.286 755.65 0 186.521 458.798 0 147.248 488.253 0 122.557 689.103 0 108.131 517.591 0 73.3508 543.677 0 41.4471 567.605 0 13.9978 588.192 0 1.22749 597.57 0 2398.01 600.183 0 2375.76 579.015 0</DataArray>
</Points>
<Verts>
 <DataArray type="Int64" Name="connectivity" format="ascii">0 1 2 3 4 5 6 7 8 9 10 11 12 13 14 15 16 17 18 19 20 21 22 23 24 25 26 27 28 29 30 31 32 33 34 35 36 37 38 39 40 41 42 43 44 45 46 47 48 49 50 51 52 53 54 55 56 57 58 59 60 61 62 63 64 65 66 67 68 69 70 71 72 73 74 75 76 77 78</DataArray>
 <DataArray type="Int64" Name="offsets" format="ascii">79</DataArray>
</Verts>
<Lines>
 <DataArray type="Int64" Name="connectivity" format="ascii"/>
 <DataArray type="Int64" Name="offsets" format="ascii"/>
</Lines>
<Stripes>
 <DataArray type="Int64" Name="connectivity" format="ascii"/>
 <DataArray type="Int64" Name="offsets" format="ascii"/>
</Stripes>
<Polys>
 <DataArray type="Int64" Name="connectivity" format="ascii"/>
 <DataArray type="Int64" Name="offsets" format="ascii"/>
</Polys>
</Piece>
</PolyData>
</VTKFile>