<?xml version="1.0" encoding="UTF-8" ?>
<VTKFile type="PolyData" version="0.1" order="LittleEndian">
<PolyData>
 <Piece NumberOfPoints="81" NumberOfVerts="1" NumberOfLines="0" NumberOfStrips="0" NumberOfPolys="0">
<PointData>
 <DataArray type="Float64" Name="speed" format="ascii">12.1974 12.9619 12.2299 12.4419 12.1991 12.5466 12.7628 13.1029 12.2676 12.3017 13.1359 12.2421 13.0233 12.3414 12.2236 13.1564 13.1323 13.2392 12.5982 12.5154 7.93513 2.63519 4.48918 1.95577 4.18063 13.1167 12.7239 12.395 12.3987 12.4478 13.3632 13.1196 12.5102 12.6574 12.6277 12.8981 13.0136 12.5114 12.472 12.5108 13.0369 12.6504 13.2139 12.8416 12.4089 13.297 13.2454 13.3542 12.6808 12.4297 13.2831 12.2629 13.3286 13.1932 12.7372 13.1849 12.6702 12.1602 12.2454 12.207 13.3836 13.1158 12.2345 12.429 12.6232 12.3295 12.7319 12.3647 12.4808 13.0993 12.6474 13.288 13.1494 12.5912 12.4485 13.1073 12.2821 12.9932 12.5453 12.5845 13.3004</DataArray>
</PointData>
<CellData/>
<Points>
 <DataArray type="Float64" Name="Points" NumberOfComponents="3" format="ascii">600.146 148.579 0 564.686 175.174 0 549.811 1009.54 0 514.229 982.858 0 494.536 227.787 0 457.301 255.713 0 433.49 273.571 0 400.25 897.374 0 370.437 875.014 0 351.231 335.265 0 317.959 360.22 0 285.31 811.169 0 273.995 393.193 0 236.073 421.634 0 204.204 445.536 0 173.475 468.583 0 146.393 488.895 0 116.431 511.366 0 88.2586 532.496 0 58.5331 554.79 0 18.8473 584.555 0 3.1862 596.214 0 2397.2 600.789 0 2387.5 608.064 0 2378.83 614.566 0 2362.67 569.196 0 2328.27 652.481 0 2302.44 671.857 0 2277.8 505.541 0 2240.76 477.76 0 2224.88 730.028 0 2192.65 754.199 0 2153.7 783.41 0 2138.63 401.166 0 2110.58 380.124 0 2077.11 840.855 0 2056.32 856.446 0 2020.29 312.408 0 1998.88 899.526 0 1965.12 924.846 0 1946.19 939.044 0 1924 240.194 0 1884.59 210.633 0 1853.19 1008.8 0 1820.47 1033.34 0 1799.57 146.867 0 1762.82 1076.57 0 1726.97 1103.46 0 1711.56 80.8628 0 1692.06 66.2361 0 1662.71 1151.65 0 1636.64 1171.2 0 1607.08 2.50037 0 1580.5 1198.35 0 1534.19 1198.35 0 1503.97 -1.65 0 1460.28 1198.35 0 1420.4 1198.35 0 1391.28 -1.65 0 1347.85 1198.35 0 1303.62 1198.35 0 1267.33 -1.65 0 1219.26 -1.65 0 1198.11 1198.35 0 1157.09 1198.35 0 1132.22 -1.65 0 1090.89 -1.65 0 1053.9 -1.65 0 1029.32 1198.35 0 988.431 1198.35 0 945.876 -1.65 0 919.895 -1.65 0 865.727 -1.65 0 831.879 -1.65 0 805.319 1198.35 0 770.179 1174.82 0 747.967 37.7126 0 718.341 59.9323 0 686.386 1111.98 0 653.597 108.49 0 624.604 130.235 0</DataArray>
</Points>
<Verts>
 <DataArray type="Int64" Name="connectivity" format="ascii">0 1 2 3 4 5 6 7 8 9 10 11 12 13 14 15 16 17 18 19 20 21 22 23 24 25 26 27 28 29 30 31 32 33 34 35 36 37 38 39 40 41 42 43 44 45 46 47 48 49 50 51 52 53 54 55 56 57 58 59 60 61 62 63 64 65 66 67 68 69 70 71 72 73 74 75 76 77 78 79 80</DataArray>
 <DataArray type="Int64" Name="offsets" format="ascii">81</DataArray>
</Verts>
<Lines>
 <DataArray type="Int64" Name="connectivity" format="ascii"/>
 <DataArray type="Int64" Name="offsets" format="ascii"/>
</Lines>
<Stripes>
 <DataArray type="Int64" Name="connectivity" format="ascii"/>
 <DataArray type="Int64" Name="offsets" format="ascii"/>
</Stripes>
<Polys>
 <DataArray type="Int64" Name="connectivity" format="ascii"/>
 <DataArray type="Int64" Name="offsets" format="ascii"/>
</Polys>
</Piece>
</PolyData>
</VTKFile>