<?xml version="1.0" encoding="UTF-8" ?>
<VTKFile type="PolyData" version="0.1" order="LittleEndian">
<PolyData>
 <Piece NumberOfPoints="99" NumberOfVerts="1" NumberOfLines="0" NumberOfStrips="0" NumberOfPolys="0">
<PointData>
 <DataArray type="Float64" Name="speed" format="ascii">13.1542 13.2079 13.2343 12.6057 12.4493 12.2126 13.168 12.53 12.804 12.6837 12.3254 13.026 13.209 12.7175 12.2063 13.3422 12.476 12.5066 13.2595 12.9354 12.2376 12.298 12.1389 12.9753 12.6549 13.0994 13.3507 12.7486 12.2214 13.0381 12.9768 12.6795 12.3779 12.3182 12.791 13.0959 13.1322 12.6983 12.8325 12.8879 13.2077 13.1757 13.2777 12.3608 13.0332 13.2748 10.0472 4.5437 0 13.1738 12.8696 12.6027 13.0495 12.2797 12.2389 12.9115 13.0398 12.4342 13.1115 12.6493 12.4668 12.4064 12.5454 12.2934 4.54129 1.21025 3.89867 13.2708 12.3025 12.8827 12.996 13.0992 13.0937 12.2789 12.5515 12.5767 12.9786 12.4942 12.9153 12.6588 12.5097 13.2417 12.2666 12.5408 12.6451 12.8272 12.9958 12.5822 12.5956 12.6705 12.7575 12.2311 12.1963 12.2782 12.9885 13.2963 12.3521 12.8639 12.8243</DataArray>
</PointData>
<CellData/>
<Points>
 <DataArray type="Float64" Name="Points" NumberOfComponents="3" format="ascii">1565.67 -1.65 0 1530.9 -1.65 0 1489.88 -1.65 0 1454.65 -1.65 0 1412.92 -1.65 0 1373.72 -1.65 0 1334.34 -1.65 0 1291.63 -1.65 0 1256.28 -1.65 0 1213.46 -1.65 0 1178.28 -1.65 0 1137.42 -1.65 0 1099.97 -1.65 0 1064.33 1198.35 0 1035.92 -1.65 0 1005.06 -1.65 0 972.357 -1.65 0 933.224 1198.35 0 899.923 1198.35 0 863.25 -1.65 0 815.964 -1.65 0 785.403 9.63532 0 757.506 30.5578 0 726.559 53.7686 0 695.627 76.9678 0 666.711 98.6544 0 638.938 119.484 0 603.358 146.17 0 582.252 161.999 0 543.111 191.355 0 509.987 216.198 0 477.617 240.476 0 445.782 264.352 0 418.903 284.512 0 389.357 306.671 0 364.245 325.505 0 325.827 354.319 0 296.978 375.955 0 270.949 395.478 0 237.393 420.644 0 207.305 443.211 0 177.447 465.604 0 148.875 487.033 0 108.111 517.607 0 83.2104 536.282 0 47.2869 563.225 0 23.2284 581.269 0 5.78 594.355 0 0.1 598.35 0 2363.8 625.837 0 2321.27 657.736 0 2239.41 719.13 0 2207.29 743.221 0 2104.58 820.252 0 2071.72 844.896 0 2012.3 889.463 0 1961.64 927.456 0 1919.61 958.979 0 1873.53 993.541 0 1844.48 1015.33 0 1731.98 1099.71 0 1713.87 1113.29 0 1689.14 1131.84 0 1661.44 1152.61 0 1606.6 1193.74 0 1602.65 1185.23 0 1602.65 1175.02 0 1602.65 1151.55 0 1602.65 1103.44 0 1602.65 1069.2 0 1602.65 1039.03 0 1602.65 999.189 0 1602.65 954.347 0 1602.65 919.486 0 1602.65 888.117 0 1602.65 837.76 0 1602.65 795.48 0 1602.65 772.086 0 1602.65 734.21 0 1602.65 683.909 0 1602.65 653.102 0 1602.65 603.448 0 1602.65 569.717 0 1602.65 546.166 0 1602.65 510.171 0 1602.65 460.002 0 1602.65 432.722 0 1602.65 384.19 0 1602.65 354.686 0 1602.65 307.92 0 1602.65 273.082 0 1793.31 1053.7 0 1771.8 1069.84 0 1602.65 178.871 0 1602.65 138.779 0 1602.65 100.873 0 1602.65 58.1876 0 1628.55 1177.28 0 1598.74 -1.2942 0</DataArray>
</Points>
<Verts>
 <DataArray type="Int64" Name="connectivity" format="ascii">0 1 2 3 4 5 6 7 8 9 10 11 12 13 14 15 16 17 18 19 20 21 22 23 24 25 26 27 28 29 30 31 32 33 34 35 36 37 38 39 40 41 42 43 44 45 46 47 48 49 50 51 52 53 54 55 56 57 58 59 60 61 62 63 64 65 66 67 68 69 70 71 72 73 74 75 76 77 78 79 80 81 82 83 84 85 86 87 88 89 90 91 92 93 94 95 96 97 98</DataArray>
 <DataArray type="Int64" Name="offsets" format="ascii">99</DataArray>
</Verts>
<Lines>
 <DataArray type="Int64" Name="connectivity" format="ascii"/>
 <DataArray type="Int64" Name="offsets" format="ascii"/>
</Lines>
<Stripes>
 <DataArray type="Int64" Name="connectivity" format="ascii"/>
 <DataArray type="Int64" Name="offsets" format="ascii"/>
</Stripes>
<Polys>
 <DataArray type="Int64" Name="connectivity" format="ascii"/>
 <DataArray type="Int64" Name="offsets" format="ascii"/>
</Polys>
</Piece>
</PolyData>
</VTKFile>