<?xml version="1.0" encoding="UTF-8" ?>
<VTKFile type="PolyData" version="0.1" order="LittleEndian">
<PolyData>
 <Piece NumberOfPoints="107" NumberOfVerts="1" NumberOfLines="0" NumberOfStrips="0" NumberOfPolys="0">
<PointData>
 <DataArray type="Float64" Name="speed" format="ascii">12.1734 13.3485 12.6659 13.3122 12.4046 12.771 12.993 13.0427 13.2615 13.0042 12.1163 13.1776 13.3545 13.3757 13.2359 12.1987 12.5962 13.3595 12.1961 13.1684 12.3656 13.1917 11.0002 6.75272 4.63348 4.64094 4.06362 11.552 12.4207 12.1825 12.5726 12.6853 12.8106 12.2262 13.155 12.3994 12.3319 12.2243 13.2341 12.9676 12.9574 12.5375 12.5163 12.2637 13.0078 12.9295 12.1466 13.046 12.6095 12.5292 12.8692 13.0242 12.3059 12.4398 13.0135 12.5674 13.0872 12.1994 13.2296 13.1296 12.862 12.1783 12.623 12.3688 13.2168 12.7546 12.6387 12.9078 13.3841 13.1745 12.3443 12.2525 12.4402 12.5726 12.7159 12.5249 12.2471 12.6706 13.3599 12.4943 12.9726 12.9756 13.2797 13.3625 13.1999 13.1123 12.5344 13.4048 13.3228 13.0972 12.9792 12.8554 12.1595 12.8707 12.2906 12.7646 12.5735 13.329 12.9346 13.2898 13.1343 13.1802 12.6319 12.301 11.749 6.26372 2.04983</DataArray>
</PointData>
<CellData/>
<Points>
 <DataArray type="Float64" Name="Points" NumberOfComponents="3" format="ascii">2396.09 594.263 0 2366.2 571.843 0 2338.92 551.383 0 2320.01 537.2 0 2275.17 503.573 0 2241.49 478.309 0 2210.71 455.222 0 2183.58 434.881 0 2139.62 401.905 0 2106.38 376.974 0 2081.82 358.557 0 2052.5 336.565 0 2018.71 311.226 0 1990.37 289.969 0 1923.22 239.604 0 1902.11 223.779 0 1884.75 210.752 0 1854.36 187.964 0 1770.13 124.789 0 1752.84 111.819 0 1675.78 54.0291 0 1656.51 39.5772 0 1624.76 15.766 0 1604.82 1.06134 0 1599.35 9.97636 0 1599.35 23.7483 0 1599.35 36.2261 0 1599.35 58.7902 0 1599.35 103.85 0 1599.35 133.701 0 1599.35 177.778 0 1599.35 223.926 0 1599.35 250.28 0 1599.35 281.154 0 1599.35 339.369 0 1599.35 366.8 0 1599.35 395.094 0 1599.35 435.727 0 2171.41 770.13 0 2143 791.438 0 2112.43 814.368 0 2075.53 842.037 0 2053.13 858.844 0 2024.94 879.985 0 1986.7 908.659 0 1958.53 266.093 0 1932.99 948.947 0 1906.91 968.504 0 1879.02 989.421 0 1847.55 1013.02 0 1818.42 161.01 0 1778.1 1065.11 0 1751.99 1084.7 0 1717.39 85.2354 0 1698.25 1125 0 1665.55 1149.53 0 1632.44 1174.35 0 1607.92 1192.75 0 1563.67 1198.35 0 1520.55 1198.35 0 1497.06 1198.35 0 1449.87 1198.35 0 1423.17 1198.35 0 1378.58 1198.35 0 1331.13 1198.35 0 1293.25 1198.35 0 1256.49 1198.35 0 1215.31 1198.35 0 1180.7 1198.35 0 1140.69 1198.35 0 1100.25 1198.35 0 1063.72 1198.35 0 1029.2 1198.35 0 991.327 1198.35 0 953.727 1198.35 0 916.446 1198.35 0 880.051 1198.35 0 841.33 1198.35 0 797.046 1194.83 0 765.536 1171.34 0 737.312 1150.17 0 712.901 1131.86 0 680.626 88.2181 0 637.225 1075.11 0 609.279 1054.15 0 580.476 1032.54 0 554.414 1013 0 526.131 204.09 0 498.691 971.205 0 474.172 952.816 0 435.853 924.076 0 410.981 290.453 0 369.885 874.6 0 349.741 859.492 0 322.437 356.861 0 282.657 809.178 0 254.726 788.231 0 226.407 428.884 0 201.453 447.6 0 178.507 731.066 0 148.225 708.354 0 121.397 688.233 0 89.532 531.541 0 60.2258 553.52 0 35.1505 623.548 0 9.62841 604.406 0 1.78549 597.183 0</DataArray>
</Points>
<Verts>
 <DataArray type="Int64" Name="connectivity" format="ascii">0 1 2 3 4 5 6 7 8 9 10 11 12 13 14 15 16 17 18 19 20 21 22 23 24 25 26 27 28 29 30 31 32 33 34 35 36 37 38 39 40 41 42 43 44 45 46 47 48 49 50 51 52 53 54 55 56 57 58 59 60 61 62 63 64 65 66 67 68 69 70 71 72 73 74 75 76 77 78 79 80 81 82 83 84 85 86 87 88 89 90 91 92 93 94 95 96 97 98 99 100 101 102 103 104 105 106</DataArray>
 <DataArray type="Int64" Name="offsets" format="ascii">107</DataArray>
</Verts>
<Lines>
 <DataArray type="Int64" Name="connectivity" format="ascii"/>
 <DataArray type="Int64" Name="offsets" format="ascii"/>
</Lines>
<Stripes>
 <DataArray type="Int64" Name="connectivity" format="ascii"/>
 <DataArray type="Int64" Name="offsets" format="ascii"/>
</Stripes>
<Polys>
 <DataArray type="Int64" Name="connectivity" format="ascii"/>
 <DataArray type="Int64" Name="offsets" format="ascii"/>
</Polys>
</Piece>
</PolyData>
</VTKFile>