<?xml version="1.0" encoding="UTF-8" ?>
<VTKFile type="PolyData" version="0.1" order="LittleEndian">
<PolyData>
 <Piece NumberOfPoints="75" NumberOfVerts="1" NumberOfLines="0" NumberOfStrips="0" NumberOfPolys="0">
<PointData>
 <DataArray type="Float64" Name="speed" format="ascii">13.2602 13.1926 12.2687 13.2396 13.1291 12.2254 12.8026 13.1516 12.2119 12.538 13.1794 12.6632 12.2924 12.9295 13.3273 12.1747 13.0254 12.911 12.7411 12.9591 12.5508 12.9665 12.1926 12.9536 12.5761 12.3307 12.7298 13.1808 12.7816 13.3774 13.0064 12.9446 13.1676 12.7597 12.211 12.754 12.2855 12.5516 12.7574 13.2695 13.006 12.2525 12.9015 12.5281 12.8061 12.9487 13.4003 12.3394 12.5363 12.5995 12.404 12.1177 13.0277 13.0021 13.0007 12.8834 13.2127 12.9687 12.6173 12.1826 12.9284 12.2281 12.1605 13.1899 13.2519 12.6106 12.6812 12.8521 12.3871 13.0996 13.0347 12.7336 8.65506 4.53213 0</DataArray>
</PointData>
<CellData/>
<Points>
 <DataArray type="Float64" Name="Points" NumberOfComponents="3" format="ascii">2366.08 571.749 0 2342.37 553.967 0 2307.13 527.541 0 2297.44 675.607 0 2253.57 708.513 0 2227.36 467.716 0 2201.42 448.254 0 2180.27 432.398 0 2136.87 399.844 0 2113.18 382.077 0 2086.27 361.898 0 2043.97 330.168 0 2023.92 315.132 0 1994.31 292.928 0 1957.72 265.483 0 1934.23 247.868 0 1898.59 221.136 0 1872.58 201.628 0 1832.06 1024.64 0 1798.95 1049.48 0 1779.44 131.773 0 1744.36 105.462 0 1710.96 1115.47 0 1685.89 1134.27 0 1660.91 42.8768 0 1632.17 21.3182 0 1599.97 1197.86 0 1562.63 1198.35 0 1540.99 -1.65 0 1507.69 -1.65 0 1456.95 -1.65 0 1423.08 -1.65 0 1390.96 -1.65 0 1340.39 -1.65 0 1307.59 -1.65 0 1267.54 -1.65 0 1227.49 -1.65 0 1194.55 -1.65 0 1154.49 -1.65 0 1115.46 -1.65 0 1071.65 -1.65 0 1029.67 -1.65 0 990.164 -1.65 0 952.526 -1.65 0 912.228 -1.65 0 881.96 -1.65 0 829.331 -1.65 0 787.164 8.31443 0 763.856 25.7956 0 730.405 50.8837 0 697.349 75.6758 0 667.475 98.0819 0 634.737 122.635 0 603.825 145.82 0 571.83 169.816 0 536.847 196.053 0 510.875 215.532 0 481.775 237.357 0 444.685 265.175 0 416.037 286.661 0 391.336 305.187 0 364.221 325.523 0 333.238 348.76 0 296.336 376.437 0 272.281 394.479 0 237.651 420.451 0 206.47 443.837 0 171.808 469.833 0 145.562 489.518 0 120.908 508.009 0 82.1884 537.048 0 48.9306 561.992 0 20.8213 583.074 0 5.44029 594.61 0 0.1 598.35 0</DataArray>
</Points>
<Verts>
 <DataArray type="Int64" Name="connectivity" format="ascii">0 1 2 3 4 5 6 7 8 9 10 11 12 13 14 15 16 17 18 19 20 21 22 23 24 25 26 27 28 29 30 31 32 33 34 35 36 37 38 39 40 41 42 43 44 45 46 47 48 49 50 51 52 53 54 55 56 57 58 59 60 61 62 63 64 65 66 67 68 69 70 71 72 73 74</DataArray>
 <DataArray type="Int64" Name="offsets" format="ascii">75</DataArray>
</Verts>
<Lines>
 <DataArray type="Int64" Name="connectivity" format="ascii"/>
 <DataArray type="Int64" Name="offsets" format="ascii"/>
</Lines>
<Stripes>
 <DataArray type="Int64" Name="connectivity" format="ascii"/>
 <DataArray type="Int64" Name="offsets" format="ascii"/>
</Stripes>
<Polys>
 <DataArray type="Int64" Name="connectivity" format="ascii"/>
 <DataArray type="Int64" Name="offsets" format="ascii"/>
</Polys>
</Piece>
</PolyData>
</VTKFile>