<?xml version="1.0" encoding="UTF-8" ?>
<VTKFile type="PolyData" version="0.1" order="LittleEndian">
<PolyData>
 <Piece NumberOfPoints="107" NumberOfVerts="1" NumberOfLines="0" NumberOfStrips="0" NumberOfPolys="0">
<PointData>
 <DataArray type="Float64" Name="speed" format="ascii">5.99174 13.0038 12.8014 12.7308 12.7959 13.4078 12.8617 12.5461 13.0953 12.7509 12.7464 12.0975 12.3069 12.7737 13.3569 12.9185 13.0455 13.3593 12.631 13.2515 13.0751 13.3934 13.1119 12.3161 12.9149 1.48664 4.93912 9.41541 12.4284 12.1574 12.7861 13.1572 13.292 12.7304 12.7955 12.7053 13.0345 12.4912 12.4237 12.1338 13.3025 13.2777 12.7796 12.2332 12.7049 12.2009 12.771 13.1351 13.4084 12.6418 12.4738 13.1938 12.6451 12.8192 12.6566 12.5156 12.5387 13.3277 12.5359 13.0939 12.2522 12.9986 12.6223 13.0162 12.8918 13.3886 13.3421 12.789 12.5152 12.2087 12.4409 12.9737 12.7553 12.3316 12.7818 12.8356 13.306 12.3423 13.3617 12.512 12.1664 13.1405 12.4255 12.369 12.1207 12.3636 12.2828 12.4937 13.2689 12.6096 12.7908 12.3001 12.5194 12.3807 12.6658 12.3249 12.4158 13.2148 12.3471 12.533 13.3601 12.1185 12.3322 12.397 12.2563 8.45351 1.42459</DataArray>
</PointData>
<CellData/>
<Points>
 <DataArray type="Float64" Name="Points" NumberOfComponents="3" format="ascii">2396.07 601.635 0 2358.6 629.737 0 2325.57 654.506 0 2210.52 740.798 0 2191.18 755.304 0 2169.85 771.296 0 2140.62 793.221 0 2107.39 818.144 0 2080.44 838.356 0 2059.95 853.725 0 2029.68 876.426 0 2010.77 890.607 0 1979.66 913.946 0 1958.16 930.068 0 1924.67 955.188 0 1905.73 969.389 0 1876.01 991.676 0 1856.45 1006.35 0 1821.8 1032.33 0 1799.19 1049.29 0 1779.13 1064.34 0 1699.85 1123.8 0 1678.7 1139.67 0 1647.66 1162.94 0 1630.5 1175.82 0 1602.65 1191.48 0 1602.65 1180.32 0 1602.65 1163 0 1602.65 1129.57 0 1602.65 1080 0 1602.65 1035.14 0 1602.65 999.639 0 1602.65 970.277 0 1602.65 925.593 0 1602.65 892.012 0 2279.37 689.162 0 2253.48 708.578 0 1602.65 792.574 0 1602.65 754.127 0 1602.65 714.804 0 1602.65 673.703 0 1602.65 631.285 0 1602.65 601.6 0 1602.65 554.606 0 1602.65 523.903 0 1602.65 489.23 0 1602.65 437.685 0 1602.65 406.215 0 1602.65 368.629 0 1602.65 333.539 0 1602.65 299.206 0 1602.65 251.589 0 1602.65 219.074 0 1739.65 1093.95 0 1602.65 144.653 0 1602.65 108.358 0 1602.65 66.4194 0 1602.65 27.6634 0 1590.08 1198.35 0 1552.11 -1.65 0 1524.8 -1.65 0 1488.14 -1.65 0 1445.13 -1.65 0 1415.46 -1.65 0 1385.03 -1.65 0 1333.53 -1.65 0 1292.89 -1.65 0 1245.68 -1.65 0 1221.78 -1.65 0 1181.43 -1.65 0 1141.62 -1.65 0 1101.13 -1.65 0 1057.28 -1.65 0 1034.55 -1.65 0 985.976 -1.65 0 951.273 -1.65 0 910.225 -1.65 0 876.814 -1.65 0 837.781 -1.65 0 797.655 -0.212696 0 763.057 26.3951 0 744.507 40.3072 0 702.221 72.022 0 675.376 92.1555 0 640.538 118.284 0 613.129 138.841 0 584.531 160.29 0 553.963 183.216 0 525.667 204.438 0 502.316 973.923 0 471.821 951.052 0 437.07 270.886 0 410.552 290.775 0 379.444 314.106 0 349.842 336.307 0 317.961 360.218 0 289.965 381.215 0 253.805 408.335 0 228.674 427.184 0 190.834 740.311 0 159.417 479.127 0 135.754 496.874 0 105.169 519.813 0 73.3272 543.694 0 41.7931 567.345 0 16.3107 586.457 0 1.27138 597.539 0</DataArray>
</Points>
<Verts>
 <DataArray type="Int64" Name="connectivity" format="ascii">0 1 2 3 4 5 6 7 8 9 10 11 12 13 14 15 16 17 18 19 20 21 22 23 24 25 26 27 28 29 30 31 32 33 34 35 36 37 38 39 40 41 42 43 44 45 46 47 48 49 50 51 52 53 54 55 56 57 58 59 60 61 62 63 64 65 66 67 68 69 70 71 72 73 74 75 76 77 78 79 80 81 82 83 84 85 86 87 88 89 90 91 92 93 94 95 96 97 98 99 100 101 102 103 104 105 106</DataArray>
 <DataArray type="Int64" Name="offsets" format="ascii">107</DataArray>
</Verts>
<Lines>
 <DataArray type="Int64" Name="connectivity" format="ascii"/>
 <DataArray type="Int64" Name="offsets" format="ascii"/>
</Lines>
<Stripes>
 <DataArray type="Int64" Name="connectivity" format="ascii"/>
 <DataArray type="Int64" Name="offsets" format="ascii"/>
</Stripes>
<Polys>
 <DataArray type="Int64" Name="connectivity" format="ascii"/>
 <DataArray type="Int64" Name="offsets" format="ascii"/>
</Polys>
</Piece>
</PolyData>
</VTKFile>