<?xml version="1.0" encoding="UTF-8" ?>
<VTKFile type="PolyData" version="0.1" order="LittleEndian">
<PolyData>
 <Piece NumberOfPoints="75" NumberOfVerts="1" NumberOfLines="0" NumberOfStrips="0" NumberOfPolys="0">
<PointData>
 <DataArray type="Float64" Name="speed" format="ascii">13.2006 12.9734 13.1326 13.1574 12.8643 12.6968 12.2714 13.0447 12.7938 13.1907 13.3697 12.694 12.5293 12.6118 12.2861 13.2397 12.426 12.5569 12.2868 12.6643 12.2732 12.1223 12.5788 12.5597 13.4005 13.3585 13.2993 12.8398 12.9338 12.9856 13.1477 13.205 13.2022 13.3968 13.0247 12.1731 12.2353 13.1571 13.165 13.3367 12.7706 12.8392 12.6031 12.782 12.1821 13.0441 13.121 13.206 12.4765 12.7331 12.822 13.3633 13.325 12.2115 13.0292 13.2061 13.1924 13.1911 12.3389 12.6854 13.1622 13.1659 13.0838 12.4084 12.3027 12.1951 12.2792 12.9454 12.3803 12.1284 12.7737 13.0678 12.4308 6.79538 1.41788</DataArray>
</PointData>
<CellData/>
<Points>
 <DataArray type="Float64" Name="Points" NumberOfComponents="3" format="ascii">2381.21 583.097 0 2336.89 549.861 0 2314.15 532.803 0 2281.74 508.494 0 2255.95 489.153 0 2222.94 464.399 0 2198.65 446.177 0 2163.04 419.472 0 2129.92 394.632 0 2106.38 376.975 0 2078.46 356.041 0 2039.32 326.68 0 2014.56 308.11 0 1978.96 281.409 0 1955.39 263.732 0 1934.84 248.322 0 1903.02 224.455 0 1869.41 199.252 0 1830.2 169.846 0 1802.36 148.961 0 1772.1 126.271 0 1749.5 109.321 0 1714.73 83.2391 0 1684.62 60.6549 0 1657.01 39.9516 0 1625.49 16.307 0 1593.61 -1.65 0 1547.31 -1.65 0 1508.33 -1.65 0 1484.56 -1.65 0 1436.68 -1.65 0 1396.42 -1.65 0 1356.34 -1.65 0 1326.63 -1.65 0 1281.09 -1.65 0 1233.88 -1.65 0 1192.19 -1.65 0 1152.65 -1.65 0 1106.58 -1.65 0 1066.7 -1.65 0 1020.93 -1.65 0 983.754 -1.65 0 946.192 -1.65 0 913.494 -1.65 0 879.19 -1.65 0 834.461 1198.35 0 802.972 1198.35 0 778.31 14.9548 0 751.683 34.9252 0 728.872 1143.84 0 700.136 1122.29 0 673.402 93.6363 0 645.008 114.932 0 627.626 1067.91 0 602.202 1048.84 0 561.642 1018.42 0 535.821 999.052 0 500.917 972.874 0 476.766 954.761 0 446.019 931.701 0 416.54 909.591 0 378.954 881.402 0 347.644 857.919 0 319.721 836.977 0 287.313 812.671 0 259.916 792.123 0 228.148 768.296 0 200.061 747.231 0 167.492 722.805 0 138.119 700.775 0 104.082 675.247 0 74.363 652.957 0 39.5215 626.826 0 13.197 607.083 0 1.32546 599.065 0</DataArray>
</Points>
<Verts>
 <DataArray type="Int64" Name="connectivity" format="ascii">0 1 2 3 4 5 6 7 8 9 10 11 12 13 14 15 16 17 18 19 20 21 22 23 24 25 26 27 28 29 30 31 32 33 34 35 36 37 38 39 40 41 42 43 44 45 46 47 48 49 50 51 52 53 54 55 56 57 58 59 60 61 62 63 64 65 66 67 68 69 70 71 72 73 74</DataArray>
 <DataArray type="Int64" Name="offsets" format="ascii">75</DataArray>
</Verts>
<Lines>
 <DataArray type="Int64" Name="connectivity" format="ascii"/>
 <DataArray type="Int64" Name="offsets" format="ascii"/>
</Lines>
<Stripes>
 <DataArray type="Int64" Name="connectivity" format="ascii"/>
 <DataArray type="Int64" Name="offsets" format="ascii"/>
</Stripes>
<Polys>
 <DataArray type="Int64" Name="connectivity" format="ascii"/>
 <DataArray type="Int64" Name="offsets" format="ascii"/>
</Polys>
</Piece>
</PolyData>
</VTKFile>