<?xml version="1.0" encoding="UTF-8" ?>
<VTKFile type="PolyData" version="0.1" order="LittleEndian">
<PolyData>
 <Piece NumberOfPoints="76" NumberOfVerts="1" NumberOfLines="0" NumberOfStrips="0" NumberOfPolys="0">
<PointData>
 <DataArray type="Float64" Name="speed" format="ascii">12.9311 12.7515 12.3503 12.8666 12.9506 12.6787 12.7874 13.1201 12.3226 12.1797 13.1254 12.405 12.9978 12.7279 12.7803 12.1622 12.4121 12.8972 13.3617 12.9797 12.7559 13.0303 13.2031 13.2568 12.8469 13.1374 13.0815 13.2872 12.6747 13.3638 13.0459 12.486 12.9101 12.3447 12.7231 12.2058 13.1869 12.2044 13.0983 12.732 12.2014 13.0491 12.509 12.4034 12.303 12.5018 12.2779 12.5764 12.8704 13.2643 13.3966 12.9801 12.2512 12.7665 13.0541 12.1679 13.2242 12.9166 12.9052 13.1212 12.8751 13.3001 13.3594 12.4367 12.9151 13.0597 13.0091 13.3672 12.7695 12.8187 12.4046 12.2487 12.7941 12.7634 5.40357 0</DataArray>
</PointData>
<CellData/>
<Points>
 <DataArray type="Float64" Name="Points" NumberOfComponents="3" format="ascii">2393.51 592.325 0 2350.2 559.845 0 2327.34 542.696 0 2293.08 517.004 0 2267.36 497.713 0 2233.1 472.018 0 2209.29 454.158 0 2170.4 424.994 0 2145.14 406.047 0 2119.73 386.992 0 2084.97 360.918 0 2058.61 341.148 0 2022.34 313.948 0 1997.61 295.403 0 1962.87 269.346 0 1929.53 244.341 0 1900.87 222.841 0 1874.73 203.236 0 1832.76 171.761 0 1810.93 155.393 0 1788.94 138.897 0 1752.33 111.437 0 1724.53 90.5896 0 1680.71 57.7223 0 1653.76 37.5123 0 1632.43 21.5163 0 1591.68 -1.65 0 1554.82 -1.65 0 1505 -1.65 0 1464.58 -1.65 0 1437.74 -1.65 0 1397.88 -1.65 0 1362.07 -1.65 0 1315.5 -1.65 0 1283.04 -1.65 0 1238.74 -1.65 0 1214.71 -1.65 0 1167.86 -1.65 0 1120.25 -1.65 0 1087.91 -1.65 0 1052.51 -1.65 0 1021.84 -1.65 0 965.223 1198.35 0 939.191 1198.35 0 924.174 -1.65 0 876.04 -1.65 0 848.847 1198.35 0 808.428 1198.35 0 781.228 12.7664 0 748.718 37.1491 0 727.319 1142.68 0 694.661 1118.18 0 659.349 1091.7 0 636.659 1074.68 0 604.32 1050.43 0 568.811 1023.79 0 537.192 1000.08 0 509.539 979.341 0 480.672 957.691 0 454.143 937.794 0 422.075 913.742 0 387.519 887.825 0 358.122 865.778 0 330.138 844.789 0 293.472 817.29 0 268.479 798.545 0 241.07 777.989 0 201.903 748.613 0 171.408 725.742 0 144.475 705.542 0 115.002 683.437 0 85.0422 660.967 0 52.203 636.337 0 36.1759 571.558 0 9.56432 604.358 0 0.1 598.35 0</DataArray>
</Points>
<Verts>
 <DataArray type="Int64" Name="connectivity" format="ascii">0 1 2 3 4 5 6 7 8 9 10 11 12 13 14 15 16 17 18 19 20 21 22 23 24 25 26 27 28 29 30 31 32 33 34 35 36 37 38 39 40 41 42 43 44 45 46 47 48 49 50 51 52 53 54 55 56 57 58 59 60 61 62 63 64 65 66 67 68 69 70 71 72 73 74 75</DataArray>
 <DataArray type="Int64" Name="offsets" format="ascii">76</DataArray>
</Verts>
<Lines>
 <DataArray type="Int64" Name="connectivity" format="ascii"/>
 <DataArray type="Int64" Name="offsets" format="ascii"/>
</Lines>
<Stripes>
 <DataArray type="Int64" Name="connectivity" format="ascii"/>
 <DataArray type="Int64" Name="offsets" format="ascii"/>
</Stripes>
<Polys>
 <DataArray type="Int64" Name="connectivity" format="ascii"/>
 <DataArray type="Int64" Name="offsets" format="ascii"/>
</Polys>
</Piece>
</PolyData>
</VTKFile>