<?xml version="1.0" encoding="UTF-8" ?>
<VTKFile type="PolyData" version="0.1" order="LittleEndian">
<PolyData>
 <Piece NumberOfPoints="78" NumberOfVerts="1" NumberOfLines="0" NumberOfStrips="0" NumberOfPolys="0">
<PointData>
 <DataArray type="Float64" Name="speed" format="ascii">2.25346e-007 12.3642 12.4459 12.7832 13.2135 13.3482 12.5077 12.5065 12.6487 13.0157 13.2427 12.6908 12.7874 12.7518 13.3461 13.0989 12.2489 12.4041 12.2161 12.1221 12.3776 12.1916 13.1517 13.2289 13.0388 12.5624 13.2178 12.1877 13.173 12.928 12.6037 12.4027 13.1567 12.903 12.5716 12.1889 12.1824 12.9819 13.2382 13.1603 13.2315 13.2448 13.0375 12.3954 13.1081 12.312 12.7198 12.9339 13.0684 12.5306 13.0452 12.2185 12.386 13.1645 12.9032 13.2332 13.3189 12.3892 12.7275 12.8174 13.3834 12.5634 12.819 12.6277 12.6161 12.781 12.3221 13.1982 12.4073 13.056 12.7177 12.6997 12.6173 13.2754 13.2835 12.606 5.22553 0</DataArray>
</PointData>
<CellData/>
<Points>
 <DataArray type="Float64" Name="Points" NumberOfComponents="3" format="ascii">2398.01 600.181 0 2378.18 580.824 0 2349.96 559.666 0 2312.49 531.56 0 2290.57 515.121 0 2246.32 481.936 0 2223.44 464.772 0 2183.69 434.963 0 2159.22 416.604 0 2126.16 391.813 0 2101.05 372.977 0 2081.42 358.26 0 2043.05 329.478 0 2016.78 309.774 0 1981.44 912.608 0 1954.99 932.443 0 1935.42 248.755 0 1892.03 216.216 0 1865.31 196.172 0 1845.94 181.644 0 1803.56 149.86 0 1772.89 126.863 0 1747.2 107.589 0 1707.63 77.915 0 1670.78 50.2748 0 1656.99 1155.95 0 1627.86 1177.8 0 1611.39 5.73802 0 1564.47 -1.65 0 1532.94 -1.65 0 1499.5 1198.35 0 1467.71 -1.65 0 1438.16 -1.65 0 1398 -1.65 0 1353.66 -1.65 0 1319.85 -1.65 0 1286.93 1198.35 0 1254.41 -1.65 0 1220.36 -1.65 0 1185.16 -1.65 0 1142.41 -1.65 0 1102.92 -1.65 0 1063.53 -1.65 0 1026.19 -1.65 0 988.095 -1.65 0 955.799 -1.65 0 913.661 -1.65 0 872.571 -1.65 0 834.153 -1.65 0 799.967 -1.328 0 767.073 23.3831 0 735.038 47.4093 0 715.017 1133.45 0 692.835 1116.81 0 666.159 99.069 0 625.022 129.921 0 602.945 1049.4 0 588.546 157.279 0 552.729 184.141 0 521.917 207.25 0 488.29 232.471 0 453.585 258.5 0 425.003 279.936 0 406.099 294.115 0 366.293 323.969 0 336.737 346.136 0 306.156 369.072 0 274.12 393.099 0 247.311 413.206 0 216.878 436.031 0 183.534 461.039 0 155.514 482.054 0 124.471 505.337 0 95.6094 526.983 0 66.952 548.476 0 36.1917 571.546 0 9.19112 591.797 0 0.1 598.35 0</DataArray>
</Points>
<Verts>
 <DataArray type="Int64" Name="connectivity" format="ascii">0 1 2 3 4 5 6 7 8 9 10 11 12 13 14 15 16 17 18 19 20 21 22 23 24 25 26 27 28 29 30 31 32 33 34 35 36 37 38 39 40 41 42 43 44 45 46 47 48 49 50 51 52 53 54 55 56 57 58 59 60 61 62 63 64 65 66 67 68 69 70 71 72 73 74 75 76 77</DataArray>
 <DataArray type="Int64" Name="offsets" format="ascii">78</DataArray>
</Verts>
<Lines>
 <DataArray type="Int64" Name="connectivity" format="ascii"/>
 <DataArray type="Int64" Name="offsets" format="ascii"/>
</Lines>
<Stripes>
 <DataArray type="Int64" Name="connectivity" format="ascii"/>
 <DataArray type="Int64" Name="offsets" format="ascii"/>
</Stripes>
<Polys>
 <DataArray type="Int64" Name="connectivity" format="ascii"/>
 <DataArray type="Int64" Name="offsets" format="ascii"/>
</Polys>
</Piece>
</PolyData>
</VTKFile>