<?xml version="1.0" encoding="UTF-8" ?>
<VTKFile type="PolyData" version="0.1" order="LittleEndian">
<PolyData>
 <Piece NumberOfPoints="18" NumberOfVerts="1" NumberOfLines="0" NumberOfStrips="0" NumberOfPolys="0">
<PointData>
 <DataArray type="Float64" Name="speed" format="ascii">12.2279 12.6461 13.1001 12.1461 12.9598 13.0496 13.3897 12.6975 12.9992 13.1512 12.8367 12.8987 12.5618 12.5166 12.1846 12.1421 12.4806 13.083</DataArray>
</PointData>
<CellData/>
<Points>
 <DataArray type="Float64" Name="Points" NumberOfComponents="3" format="ascii">2401.75 598.245 0 2370.23 574.868 0 2352.48 561.555 0 2322.65 539.179 0 2288.7 513.715 0 2250.87 485.345 0 2228.61 468.653 0 2191.77 441.024 0 2158.24 415.876 0 2133.5 397.32 0 2096.53 369.587 0 2072.97 351.918 0 2034.02 322.709 0 2004.82 300.807 0 1985.24 286.119 0 1952.55 261.603 0 1922.87 239.343 0 1893.69 217.457 0</DataArray>
</Points>
<Verts>
 <DataArray type="Int64" Name="connectivity" format="ascii">0 1 2 3 4 5 6 7 8 9 10 11 12 13 14 15 16 17</DataArray>
 <DataArray type="Int64" Name="offsets" format="ascii">18</DataArray>
</Verts>
<Lines>
 <DataArray type="Int64" Name="connectivity" format="ascii"/>
 <DataArray type="Int64" Name="offsets" format="ascii"/>
</Lines>
<Stripes>
 <DataArray type="Int64" Name="connectivity" format="ascii"/>
 <DataArray type="Int64" Name="offsets" format="ascii"/>
</Stripes>
<Polys>
 <DataArray type="Int64" Name="connectivity" format="ascii"/>
 <DataArray type="Int64" Name="offsets" format="ascii"/>
</Polys>
</Piece>
</PolyData>
</VTKFile>