<?xml version="1.0" encoding="UTF-8" ?>
<VTKFile type="PolyData" version="0.1" order="LittleEndian">
<PolyData>
 <Piece NumberOfPoints="31" NumberOfVerts="1" NumberOfLines="0" NumberOfStrips="0" NumberOfPolys="0">
<PointData>
 <DataArray type="Float64" Name="speed" format="ascii">12.1793 13.0334 12.4306 13.0036 13.0098 12.4431 12.6559 12.5453 12.8957 12.3424 13.0693 12.5703 12.9275 13.1296 13.2011 12.6119 12.9437 13.1496 12.7025 13.1853 12.2212 12.3927 13.2577 12.7523 13.1422 12.8418 12.7677 13.1984 12.8345 13.1668 13.1365</DataArray>
</PointData>
<CellData/>
<Points>
 <DataArray type="Float64" Name="Points" NumberOfComponents="3" format="ascii">2375.84 579.073 0 2352.24 561.369 0 2320.92 537.88 0 2287.12 512.534 0 2254.46 488.039 0 2228.36 468.461 0 2199.59 446.882 0 2172.59 426.635 0 2127.99 393.184 0 2105.97 376.672 0 2057.15 340.055 0 2036.71 324.728 0 2013.05 306.98 0 1985.41 286.253 0 1952.39 261.483 0 1920.73 237.742 0 1889.4 214.241 0 1851.08 185.5 0 1826.93 167.39 0 1807.7 152.964 0 1772.35 1069.43 0 1750.79 1085.6 0 1720.57 87.6213 0 1692.54 66.5979 0 1653.59 1158.5 0 1620.64 1183.21 0 1612.5 6.56972 0 1554.23 -1.65 0 1538.12 1198.35 0 1495.65 1198.35 0 1458.21 1198.35 0</DataArray>
</Points>
<Verts>
 <DataArray type="Int64" Name="connectivity" format="ascii">0 1 2 3 4 5 6 7 8 9 10 11 12 13 14 15 16 17 18 19 20 21 22 23 24 25 26 27 28 29 30</DataArray>
 <DataArray type="Int64" Name="offsets" format="ascii">31</DataArray>
</Verts>
<Lines>
 <DataArray type="Int64" Name="connectivity" format="ascii"/>
 <DataArray type="Int64" Name="offsets" format="ascii"/>
</Lines>
<Stripes>
 <DataArray type="Int64" Name="connectivity" format="ascii"/>
 <DataArray type="Int64" Name="offsets" format="ascii"/>
</Stripes>
<Polys>
 <DataArray type="Int64" Name="connectivity" format="ascii"/>
 <DataArray type="Int64" Name="offsets" format="ascii"/>
</Polys>
</Piece>
</PolyData>
</VTKFile>