<?xml version="1.0" encoding="UTF-8" ?>
<VTKFile type="PolyData" version="0.1" order="LittleEndian">
<PolyData>
 <Piece NumberOfPoints="106" NumberOfVerts="1" NumberOfLines="0" NumberOfStrips="0" NumberOfPolys="0">
<PointData>
 <DataArray type="Float64" Name="speed" format="ascii">4.99788 12.2348 13.1561 13.1807 13.2918 12.1725 12.4044 13.3792 12.8943 12.6926 13.0274 12.7695 12.3721 12.7817 12.1926 12.7885 13.0529 12.448 13.2567 12.3971 12.5192 12.3016 12.6346 12.4818 12.2013 5.17336 12.1922 13.1792 12.1269 13.1638 12.9138 12.3217 12.6719 12.9421 12.1174 12.7868 12.4363 12.5717 13.1342 12.9864 12.5279 12.1734 13.3926 12.5902 13.2369 12.1364 13.087 13.2881 12.6829 12.7946 13.1386 13.2735 13.3575 12.5966 12.165 12.3616 13.0177 12.279 12.6959 13.1517 12.3565 12.4479 12.6602 12.7888 12.5527 12.1358 12.7022 12.9904 12.7288 13.0078 12.591 12.9409 12.1475 12.2346 12.7579 12.3665 12.2972 12.408 12.9993 12.9525 12.3033 12.9356 13.1746 12.2174 13.1822 12.3488 12.3648 12.7467 12.9586 12.5857 12.3833 12.7677 12.5112 12.9741 13.2666 12.5017 12.8466 12.4033 12.9993 13.0448 12.8371 12.9906 12.5755 13.0214 10.2867 4.20508</DataArray>
</PointData>
<CellData/>
<Points>
 <DataArray type="Float64" Name="Points" NumberOfComponents="3" format="ascii">2397.36 600.669 0 2375.86 616.789 0 2347.01 638.429 0 2312.35 664.426 0 2282.03 687.168 0 2248.17 712.557 0 2147.13 788.342 0 2127.09 803.367 0 2050.01 861.182 0 2030.5 875.81 0 2007.08 893.379 0 1977.62 915.474 0 1957.85 930.3 0 1926.31 953.957 0 1907.25 968.251 0 1872.12 994.595 0 1853.98 1008.2 0 1824.09 1030.62 0 1797.4 1050.64 0 1764.58 1075.25 0 1746 1089.19 0 1717.17 1110.81 0 1684.09 1135.62 0 1650.8 1160.59 0 1624.59 1180.24 0 1602.65 1190.43 0 1602.65 1169.98 0 1602.65 1119.97 0 1602.65 1081.04 0 1602.65 1046.69 0 1602.65 1010.79 0 1602.65 970.47 0 1602.65 929.985 0 1602.65 892.576 0 1602.65 849.167 0 1602.65 820.085 0 1602.65 771.182 0 2205.94 744.231 0 2186.37 758.913 0 1602.65 684.398 0 1602.65 656.423 0 2090.5 830.814 0 1602.65 567.828 0 1602.65 534.157 0 1602.65 497.306 0 1602.65 463.099 0 1602.65 410.457 0 1602.65 387.083 0 1602.65 336.763 0 1602.65 301.642 0 1602.65 271.505 0 1602.65 228.944 0 1602.65 188.854 0 1602.65 161.348 0 1602.65 110.833 0 1602.65 77.0937 0 1602.65 36.4508 0 1596.58 -1.60219 0 1569.75 -1.65 0 1538.89 1198.35 0 1501.17 -1.65 0 1460.53 -1.65 0 1418.62 -1.65 0 1388.99 1198.35 0 1362.28 -1.65 0 1324.95 -1.65 0 1270.82 -1.65 0 1246.5 -1.65 0 1213.07 -1.65 0 1163.3 -1.65 0 1133.38 -1.65 0 1096.31 -1.65 0 1052.88 1198.35 0 1007.28 -1.65 0 967.479 -1.65 0 928.778 -1.65 0 899.415 -1.65 0 862.921 -1.65 0 813.759 -1.65 0 779.102 14.3609 0 751.873 34.7831 0 722.066 57.1383 0 688.09 82.6206 0 660.111 103.605 0 633.548 123.527 0 595.065 152.39 0 563.439 176.109 0 531.065 200.389 0 502.924 221.495 0 472.508 244.308 0 439.87 268.786 0 411.985 289.7 0 379.019 314.424 0 349.299 336.715 0 322.106 357.109 0 291.525 815.83 0 268.33 397.442 0 239.629 418.967 0 205.97 444.212 0 180.095 463.618 0 142.164 492.066 0 116.762 511.118 0 79.6174 538.977 0 54.0555 558.148 0 24.6523 580.201 0 5.36952 594.663 0</DataArray>
</Points>
<Verts>
 <DataArray type="Int64" Name="connectivity" format="ascii">0 1 2 3 4 5 6 7 8 9 10 11 12 13 14 15 16 17 18 19 20 21 22 23 24 25 26 27 28 29 30 31 32 33 34 35 36 37 38 39 40 41 42 43 44 45 46 47 48 49 50 51 52 53 54 55 56 57 58 59 60 61 62 63 64 65 66 67 68 69 70 71 72 73 74 75 76 77 78 79 80 81 82 83 84 85 86 87 88 89 90 91 92 93 94 95 96 97 98 99 100 101 102 103 104 105</DataArray>
 <DataArray type="Int64" Name="offsets" format="ascii">106</DataArray>
</Verts>
<Lines>
 <DataArray type="Int64" Name="connectivity" format="ascii"/>
 <DataArray type="Int64" Name="offsets" format="ascii"/>
</Lines>
<Stripes>
 <DataArray type="Int64" Name="connectivity" format="ascii"/>
 <DataArray type="Int64" Name="offsets" format="ascii"/>
</Stripes>
<Polys>
 <DataArray type="Int64" Name="connectivity" format="ascii"/>
 <DataArray type="Int64" Name="offsets" format="ascii"/>
</Polys>
</Piece>
</PolyData>
</VTKFile>