<?xml version="1.0" encoding="UTF-8" ?>
<VTKFile type="PolyData" version="0.1" order="LittleEndian">
<PolyData>
 <Piece NumberOfPoints="77" NumberOfVerts="1" NumberOfLines="0" NumberOfStrips="0" NumberOfPolys="0">
<PointData>
 <DataArray type="Float64" Name="speed" format="ascii">12.4165 12.3357 12.3305 12.9181 12.3109 12.4243 13.0808 12.3758 12.4603 12.2417 12.1596 13.2314 12.605 12.4151 13.3497 12.2045 12.7835 12.9418 12.6846 12.3163 13.0425 12.5909 12.8575 12.7737 12.8583 12.5267 13.3849 12.6924 12.5956 12.8767 12.7411 12.7846 12.4747 12.7605 12.6652 12.3476 12.5082 12.1427 12.4678 13.3986 12.1806 13.0612 13.3268 13.3957 12.4816 12.206 13.3118 13.2198 12.4793 12.2342 12.2623 12.9998 12.3069 12.3074 12.9912 13.3335 12.4779 12.2928 12.5614 12.2361 12.524 12.2551 13.1551 12.5529 12.8988 12.7137 12.9021 13.0657 12.1255 13.0425 12.7928 13.3571 13.3858 12.6824 12.433 5.94171 0</DataArray>
</PointData>
<CellData/>
<Points>
 <DataArray type="Float64" Name="Points" NumberOfComponents="3" format="ascii">1599.35 188.9 0 1599.35 233.572 0 2341.34 553.196 0 2309.85 529.581 0 2291.55 515.855 0 2250.92 485.38 0 2222.91 464.375 0 2202.39 448.985 0 2157.75 415.504 0 2136.31 399.428 0 2110.68 380.206 0 2065.57 346.367 0 2045.83 331.562 0 2015.61 308.9 0 1979.43 281.761 0 1599.35 770.837 0 1599.35 800.837 0 1885.49 211.31 0 1855.71 188.976 0 1599.35 926.737 0 1599.35 948.271 0 1773.13 127.04 0 1745.51 106.323 0 1599.35 1059.46 0 1599.35 1088.27 0 1666.52 47.0789 0 1640.29 27.4074 0 1606.6 2.14595 0 1566.36 -1.65 0 1517.47 -1.65 0 1487.69 -1.65 0 1446.42 -1.65 0 1415.66 -1.65 0 1361.87 -1.65 0 1338.12 -1.65 0 1298.06 -1.65 0 1254.89 -1.65 0 1212.55 -1.65 0 1165.51 -1.65 0 1125.63 -1.65 0 1089.44 -1.65 0 1054.31 -1.65 0 1010.15 -1.65 0 977.543 -1.65 0 937.556 -1.65 0 905.845 -1.65 0 864.384 -1.65 0 819.142 -1.65 0 785.101 9.86215 0 756.491 31.3192 0 726.073 54.1326 0 687.984 82.6997 0 662.291 101.97 0 641.255 1078.13 0 606.751 1052.25 0 593.444 153.605 0 551.075 185.382 0 524.058 205.645 0 495.214 968.597 0 475.2 242.289 0 443.633 265.964 0 413.647 288.453 0 393.558 892.355 0 361.031 867.959 0 335.192 347.295 0 307.207 368.284 0 272.681 394.178 0 246.691 782.204 0 213.345 438.681 0 185.729 459.392 0 158.647 479.704 0 119.838 508.811 0 96.8245 669.804 0 60.6903 642.703 0 34.8952 623.357 0 9.80326 604.537 0 0.1 598.35 0</DataArray>
</Points>
<Verts>
 <DataArray type="Int64" Name="connectivity" format="ascii">0 1 2 3 4 5 6 7 8 9 10 11 12 13 14 15 16 17 18 19 20 21 22 23 24 25 26 27 28 29 30 31 32 33 34 35 36 37 38 39 40 41 42 43 44 45 46 47 48 49 50 51 52 53 54 55 56 57 58 59 60 61 62 63 64 65 66 67 68 69 70 71 72 73 74 75 76</DataArray>
 <DataArray type="Int64" Name="offsets" format="ascii">77</DataArray>
</Verts>
<Lines>
 <DataArray type="Int64" Name="connectivity" format="ascii"/>
 <DataArray type="Int64" Name="offsets" format="ascii"/>
</Lines>
<Stripes>
 <DataArray type="Int64" Name="connectivity" format="ascii"/>
 <DataArray type="Int64" Name="offsets" format="ascii"/>
</Stripes>
<Polys>
 <DataArray type="Int64" Name="connectivity" format="ascii"/>
 <DataArray type="Int64" Name="offsets" format="ascii"/>
</Polys>
</Piece>
</PolyData>
</VTKFile>