<?xml version="1.0" encoding="UTF-8" ?>
<VTKFile type="PolyData" version="0.1" order="LittleEndian">
<PolyData>
 <Piece NumberOfPoints="89" NumberOfVerts="1" NumberOfLines="0" NumberOfStrips="0" NumberOfPolys="0">
<PointData>
 <DataArray type="Float64" Name="speed" format="ascii">0.877333 2.41898 2.86128 0.205136 0.00386771 0.0214579 0.272314 0.263813 0.927462 0.823816 1.1624 1.12886 0.398866 0.0626958 0.00294899 12.924 13.1212 12.9476 12.6925 13.1764 12.4207 12.9539 13.2732 12.8795 12.6649 12.6587 12.8174 12.7716 12.9816 13.2264 12.2763 13.1103 12.8479 12.8426 12.6274 12.2099 12.5182 12.6545 12.9726 13.1066 12.7206 12.5263 12.9422 12.3114 13.009 13.0722 12.2935 13.1816 12.903 13.1306 12.4941 12.9091 12.1559 13.3778 13.0209 12.5747 13.0734 13.2973 12.3125 12.303 12.6183 12.7505 12.7096 13.1436 12.327 12.4485 12.9324 13.1123 13.0459 13.0895 12.9964 13.0506 13.0725 13.1376 12.3005 12.7009 12.9932 12.1119 12.815 12.2481 12.8464 13.1297 12.1621 12.1289 12.1855 13.3971 13.3078 9.67879 3.77204</DataArray>
</PointData>
<CellData/>
<Points>
 <DataArray type="Float64" Name="Points" NumberOfComponents="3" format="ascii">2398 600.186 0 2390.6 605.738 0 2382.61 611.731 0 2374.17 618.061 0 2368 622.685 0 2361.99 627.192 0 2355.89 631.769 0 2349.5 636.562 0 2343.07 641.385 0 2335.88 646.777 0 2328.51 652.307 0 2321.32 657.695 0 2314.37 662.913 0 2308.05 667.653 0 2301.99 672.191 0 2379.61 581.897 0 2359.25 566.632 0 2331.2 545.593 0 2305.14 526.045 0 2271.5 500.814 0 2243.63 479.913 0 2204.33 450.442 0 2162.46 419.036 0 2141.3 403.169 0 2111.88 381.105 0 2080.51 357.571 0 2058.4 340.995 0 2018.15 310.804 0 1989.09 289.008 0 1958.16 265.81 0 1918.63 236.166 0 1896.5 219.567 0 1860.8 192.789 0 1840.94 177.895 0 1813.1 157.015 0 1782.07 133.745 0 1743.55 104.855 0 1707.94 78.1473 0 1682.26 58.8906 0 1651.88 36.1055 0 1616.98 9.93091 0 1578.3 -1.65 0 1550.33 -1.65 0 1514.3 -1.65 0 1480.66 -1.65 0 1441.95 -1.65 0 1392.15 -1.65 0 1356.44 -1.65 0 1317.05 -1.65 0 1289.6 -1.65 0 1244.54 -1.65 0 1188.13 -1.65 0 1165.13 -1.65 0 1130.03 -1.65 0 1087.85 -1.65 0 1048.94 -1.65 0 1008.92 -1.65 0 970.217 -1.65 0 938.367 -1.65 0 898.345 -1.65 0 858.555 -1.65 0 826.831 -1.65 0 787.994 7.69222 0 755.822 31.821 0 719.753 58.8733 0 697.559 75.5182 0 663.261 101.242 0 633.029 123.917 0 604.186 145.549 0 570.38 170.903 0 538.776 194.607 0 511.77 214.861 0 487.053 233.399 0 448.708 262.158 0 418.568 284.762 0 382.37 311.912 0 353.485 333.575 0 323.613 355.979 0 296.326 376.444 0 273.564 393.517 0 239.964 418.716 0 205.808 444.334 0 173.703 468.412 0 143.693 490.92 0 115.271 512.236 0 86.7736 533.61 0 48.4907 562.322 0 21.8232 582.323 0 4.61106 595.228 0</DataArray>
</Points>
<Verts>
 <DataArray type="Int64" Name="connectivity" format="ascii">0 1 2 3 4 5 6 7 8 9 10 11 12 13 14 15 16 17 18 19 20 21 22 23 24 25 26 27 28 29 30 31 32 33 34 35 36 37 38 39 40 41 42 43 44 45 46 47 48 49 50 51 52 53 54 55 56 57 58 59 60 61 62 63 64 65 66 67 68 69 70 71 72 73 74 75 76 77 78 79 80 81 82 83 84 85 86 87 88</DataArray>
 <DataArray type="Int64" Name="offsets" format="ascii">89</DataArray>
</Verts>
<Lines>
 <DataArray type="Int64" Name="connectivity" format="ascii"/>
 <DataArray type="Int64" Name="offsets" format="ascii"/>
</Lines>
<Stripes>
 <DataArray type="Int64" Name="connectivity" format="ascii"/>
 <DataArray type="Int64" Name="offsets" format="ascii"/>
</Stripes>
<Polys>
 <DataArray type="Int64" Name="connectivity" format="ascii"/>
 <DataArray type="Int64" Name="offsets" format="ascii"/>
</Polys>
</Piece>
</PolyData>
</VTKFile>