<?xml version="1.0" encoding="UTF-8" ?>
<VTKFile type="PolyData" version="0.1" order="LittleEndian">
<PolyData>
 <Piece NumberOfPoints="19" NumberOfVerts="1" NumberOfLines="0" NumberOfStrips="0" NumberOfPolys="0">
<PointData>
 <DataArray type="Float64" Name="speed" format="ascii">12.9258 12.4871 13.2239 12.8205 12.6238 13.0592 13.1239 12.4563 9.23816 4.9275 0 13.1005 13.226 12.6572 13.394 12.4949 12.8247 12.4118 12.8862</DataArray>
</PointData>
<CellData/>
<Points>
 <DataArray type="Float64" Name="Points" NumberOfComponents="3" format="ascii">508.98 978.922 0 481.892 958.606 0 208.367 753.461 0 180.802 732.787 0 141.527 703.331 0 113.199 682.085 0 82.4475 659.021 0 48.786 633.775 0 22.6918 614.204 0 6.48353 602.077 0 0.1 598.35 0 459.124 941.53 0 416.405 909.49 0 392.087 891.251 0 363.821 870.052 0 330.505 845.065 0 299.313 821.671 0 265.871 796.589 0 241.181 778.071 0</DataArray>
</Points>
<Verts>
 <DataArray type="Int64" Name="connectivity" format="ascii">0 1 2 3 4 5 6 7 8 9 10 11 12 13 14 15 16 17 18</DataArray>
 <DataArray type="Int64" Name="offsets" format="ascii">19</DataArray>
</Verts>
<Lines>
 <DataArray type="Int64" Name="connectivity" format="ascii"/>
 <DataArray type="Int64" Name="offsets" format="ascii"/>
</Lines>
<Stripes>
 <DataArray type="Int64" Name="connectivity" format="ascii"/>
 <DataArray type="Int64" Name="offsets" format="ascii"/>
</Stripes>
<Polys>
 <DataArray type="Int64" Name="connectivity" format="ascii"/>
 <DataArray type="Int64" Name="offsets" format="ascii"/>
</Polys>
</Piece>
</PolyData>
</VTKFile>