<?xml version="1.0" encoding="UTF-8" ?>
<VTKFile type="PolyData" version="0.1" order="LittleEndian">
<PolyData>
 <Piece NumberOfPoints="114" NumberOfVerts="1" NumberOfLines="0" NumberOfStrips="0" NumberOfPolys="0">
<PointData>
 <DataArray type="Float64" Name="speed" format="ascii">4.64887 1.90028 1.45236 0.421308 1.47231 1.20094 4.07316 2.08195 1.79762 0.690721 0.894705 0.635633 1.33269 1.86619 3.84343 4.17841 2.33244 2.86083 2.37031 1.25958 0.34425 0.395875 1.27241 0.784421 0.819406 0.589213 0.986115 0.819138 0.588855 0.514034 0.811871 0.607633 1.44014 1.01481 0.374549 0.498681 0.881185 1.21954 0.494974 0.432937 12.6775 13.199 0.472541 12.9422 12.2188 12.547 0.412185 0.33453 12.2762 13.0914 12.5297 12.4748 13.2221 13.225 12.2598 12.2716 13.0302 12.5899 12.183 12.7516 12.1401 13.0887 12.3637 13.1099 12.4202 13.0731 13.261 12.2486 12.6994 12.6603 13.0409 13.0966 12.71 12.7075 12.4617 12.9315 12.3382 12.2109 12.2643 12.9718 12.2168 13.0538 13.2619 12.3992 12.4876 12.2825 12.856 13.1367 12.6177 12.174 13.2221 12.8932 12.9466 12.7727 13.4051 12.937 12.2313 12.718 12.7607 12.3591 12.6246 12.6231 13.0771 12.2506 12.8204 12.245 12.9607 12.1648 12.2157 12.4758 12.8176 12.4112 10.0694 4.54144</DataArray>
</PointData>
<CellData/>
<Points>
 <DataArray type="Float64" Name="Points" NumberOfComponents="3" format="ascii">2399.38 599.523 0 2388.56 607.268 0 2380.89 613.019 0 2373.51 618.552 0 2366.94 623.484 0 2358.84 629.561 0 2351.5 635.065 0 2341.28 642.725 0 2333.44 648.606 0 2325.93 654.239 0 2318.98 659.455 0 2311.76 664.869 0 2305.11 669.853 0 2297.2 675.787 0 2288.89 682.017 0 2278.76 689.618 0 2268.66 697.189 0 2259.78 703.856 0 2250.61 710.728 0 2242.69 716.67 0 2235.65 721.95 0 2229.33 726.688 0 2222.58 731.754 0 2215.42 737.123 0 2208.47 742.333 0 2201.46 747.596 0 2194.59 752.746 0 2187.34 758.186 0 2180.41 763.381 0 2173.61 768.479 0 2166.84 773.558 0 2160.18 778.553 0 2146.53 788.79 0 2153.48 783.578 0 2139.13 794.338 0 2132.78 799.099 0 2126.06 804.142 0 2119.28 809.229 0 2112.06 814.643 0 2105.5 819.56 0 2369.2 574.096 0 2339.34 551.7 0 2098.91 824.503 0 2274.52 503.084 0 2241.82 478.56 0 2208.76 453.761 0 2092.26 829.49 0 2085.85 834.298 0 2136.06 399.241 0 2112.48 381.556 0 2085.03 360.963 0 2042.84 329.325 0 2023.74 314.997 0 1992.77 291.772 0 1961.6 268.395 0 1924.84 240.823 0 1889.82 214.556 0 1861.06 192.99 0 1842.41 178.998 0 1809.33 154.194 0 1768.98 123.93 0 1745.66 106.435 0 1711.75 81.0024 0 1676.6 54.6461 0 1652.83 36.8168 0 1615.8 9.04182 0 1589.33 -1.65 0 1549.1 -1.65 0 1508.51 -1.65 0 1471.48 -1.65 0 1428.32 -1.65 0 1398.72 -1.65 0 1358.34 -1.65 0 1322.73 -1.65 0 1273.36 -1.65 0 1241.66 -1.65 0 1210.28 -1.65 0 1165.42 -1.65 0 1132.39 -1.65 0 1087.65 -1.65 0 1047.84 -1.65 0 1025.73 -1.65 0 969.959 -1.65 0 932.761 -1.65 0 899.748 -1.65 0 861.912 -1.65 0 825.258 -1.65 0 788.085 7.62391 0 756.988 30.9466 0 722.602 56.7362 0 701.998 72.1892 0 666.455 98.8466 0 632.386 124.399 0 605.242 144.757 0 574.742 167.632 0 545.826 189.319 0 508.159 217.569 0 474.46 242.844 0 444.617 265.226 0 416.431 286.365 0 387.767 307.863 0 358.436 329.862 0 327.505 353.06 0 296.225 376.52 0 273.929 393.243 0 235.008 422.433 0 205.856 444.298 0 170.535 470.788 0 144.419 490.376 0 111.972 514.711 0 76.9519 540.976 0 50.9512 560.476 0 22.7505 581.627 0 5.48158 594.579 0</DataArray>
</Points>
<Verts>
 <DataArray type="Int64" Name="connectivity" format="ascii">0 1 2 3 4 5 6 7 8 9 10 11 12 13 14 15 16 17 18 19 20 21 22 23 24 25 26 27 28 29 30 31 32 33 34 35 36 37 38 39 40 41 42 43 44 45 46 47 48 49 50 51 52 53 54 55 56 57 58 59 60 61 62 63 64 65 66 67 68 69 70 71 72 73 74 75 76 77 78 79 80 81 82 83 84 85 86 87 88 89 90 91 92 93 94 95 96 97 98 99 100 101 102 103 104 105 106 107 108 109 110 111 112 113</DataArray>
 <DataArray type="Int64" Name="offsets" format="ascii">114</DataArray>
</Verts>
<Lines>
 <DataArray type="Int64" Name="connectivity" format="ascii"/>
 <DataArray type="Int64" Name="offsets" format="ascii"/>
</Lines>
<Stripes>
 <DataArray type="Int64" Name="connectivity" format="ascii"/>
 <DataArray type="Int64" Name="offsets" format="ascii"/>
</Stripes>
<Polys>
 <DataArray type="Int64" Name="connectivity" format="ascii"/>
 <DataArray type="Int64" Name="offsets" format="ascii"/>
</Polys>
</Piece>
</PolyData>
</VTKFile>