<?xml version="1.0" encoding="UTF-8" ?>
<VTKFile type="PolyData" version="0.1" order="LittleEndian">
<PolyData>
 <Piece NumberOfPoints="47" NumberOfVerts="1" NumberOfLines="0" NumberOfStrips="0" NumberOfPolys="0">
<PointData>
 <DataArray type="Float64" Name="speed" format="ascii">6.53064 13.0831 12.7759 13.2204 13.2943 13.361 12.5394 12.7402 12.1173 13.3537 12.1481 12.4069 12.5885 12.2991 13.1115 13.3653 13.0184 12.5717 13.0908 13.1851 12.5937 12.5455 13.2705 12.6941 12.9978 13.2687 13.1798 12.4121 12.5697 13.061 12.1266 12.3631 12.9694 12.6651 12.7299 12.3219 12.7137 13.3944 12.9263 13.2747 12.8462 12.8065 12.3036 12.3585 12.7168 12.4144 12.9653</DataArray>
</PointData>
<CellData/>
<Points>
 <DataArray type="Float64" Name="Points" NumberOfComponents="3" format="ascii">2395.79 601.843 0 2374.83 617.564 0 2345.86 556.59 0 2305.72 669.395 0 2284.46 685.342 0 2262.26 701.989 0 2232.1 471.269 0 2203.53 449.837 0 2186.12 759.098 0 2146.86 788.546 0 2129.63 394.418 0 2100.54 372.598 0 2083.37 836.159 0 2051.95 859.727 0 2028.25 318.381 0 1997.16 900.818 0 1967.05 923.401 0 1942.65 941.698 0 1917.67 235.446 0 1886.77 983.613 0 1862.37 1001.91 0 1832.72 171.731 0 1809.22 154.109 0 1779.04 1064.41 0 1742.52 1091.8 0 1719.14 86.5439 0 1696.47 69.5456 0 1674.86 1142.55 0 1637.27 1170.73 0 1613.41 7.25262 0 1570.5 -1.65 0 1548.92 1198.35 0 1519.1 -1.65 0 1485.23 1198.35 0 1448.31 1198.35 0 1398.9 -1.65 0 1364.17 -1.65 0 1320.55 -1.65 0 1283.36 1198.35 0 1239.09 -1.65 0 1208.81 1198.35 0 1170.41 1198.35 0 1145.05 -1.65 0 1103.71 -1.65 0 1067.33 1198.35 0 1031.64 1198.35 0 994.561 -1.65 0</DataArray>
</Points>
<Verts>
 <DataArray type="Int64" Name="connectivity" format="ascii">0 1 2 3 4 5 6 7 8 9 10 11 12 13 14 15 16 17 18 19 20 21 22 23 24 25 26 27 28 29 30 31 32 33 34 35 36 37 38 39 40 41 42 43 44 45 46</DataArray>
 <DataArray type="Int64" Name="offsets" format="ascii">47</DataArray>
</Verts>
<Lines>
 <DataArray type="Int64" Name="connectivity" format="ascii"/>
 <DataArray type="Int64" Name="offsets" format="ascii"/>
</Lines>
<Stripes>
 <DataArray type="Int64" Name="connectivity" format="ascii"/>
 <DataArray type="Int64" Name="offsets" format="ascii"/>
</Stripes>
<Polys>
 <DataArray type="Int64" Name="connectivity" format="ascii"/>
 <DataArray type="Int64" Name="offsets" format="ascii"/>
</Polys>
</Piece>
</PolyData>
</VTKFile>