<?xml version="1.0" encoding="UTF-8" ?>
<VTKFile type="PolyData" version="0.1" order="LittleEndian">
<PolyData>
 <Piece NumberOfPoints="86" NumberOfVerts="1" NumberOfLines="0" NumberOfStrips="0" NumberOfPolys="0">
<PointData>
 <DataArray type="Float64" Name="speed" format="ascii">3.65803 1.59079e-011 1.04532 4.58589e-010 3.13952e-009 8.99874e-009 6.02988e-008 1.71315e-006 6.3768e-006 6.14655e-005 0.000471236 0.0020018 13.0722 12.6134 13.2813 12.9584 13.0179 13.0192 13.109 13.2135 12.4362 13.2041 12.3901 13.23 12.3638 13.1846 13.3153 12.9048 13.1946 13.405 12.4742 12.5623 12.7343 12.4503 13.1784 13.3013 12.2552 13.4032 13.288 12.3135 12.9152 12.6988 12.334 12.631 12.1647 12.934 12.8831 12.9236 12.4794 12.7827 13.2648 12.4343 12.6888 12.9028 12.1658 12.4322 12.2845 12.3053 12.8212 12.4047 12.6498 13.0949 12.9381 12.4226 12.95 12.9437 12.4592 12.1178 12.2007 12.919 12.1541 12.9532 12.1527 13.2545 13.2199 13.0995 12.1384 12.3395 13.2848 12.3803 12.5874 13.3773 13.0812 13.3434 10.3354 4.10987</DataArray>
</PointData>
<CellData/>
<Points>
 <DataArray type="Float64" Name="Points" NumberOfComponents="3" format="ascii">2395.85 601.797 0 2380.01 613.682 0 2386.84 608.555 0 2374.01 618.183 0 2368.01 622.684 0 2362 627.184 0 2356 631.685 0 2350 636.185 0 2344 640.686 0 2338 645.187 0 2332 649.687 0 2326 654.189 0 2392.19 591.335 0 2366.65 572.179 0 2342.52 554.082 0 2304.63 525.662 0 2275.85 504.084 0 2244.18 480.326 0 2206.76 452.265 0 2180.47 432.546 0 2155.42 413.76 0 2114.16 382.81 0 2094.5 368.069 0 2062.82 344.308 0 2033.64 322.424 0 2001.85 298.58 0 1972.01 276.202 0 1938.7 251.22 0 1909.29 229.161 0 1874.09 202.761 0 1839.69 176.96 0 1817.94 160.644 0 1783.66 134.937 0 1760.51 117.575 0 1711.23 80.6183 0 1692.33 66.4428 0 1658.44 41.0229 0 1634.33 22.9374 0 1596.51 -1.63739 0 1562.22 -1.65 0 1521.88 -1.65 0 1489.58 -1.65 0 1439.11 -1.65 0 1407.08 -1.65 0 1370.38 -1.65 0 1337.03 -1.65 0 1290.35 -1.65 0 1259.55 -1.65 0 1214.9 -1.65 0 1172.1 -1.65 0 1134.2 -1.65 0 1105.89 -1.65 0 1069.96 -1.65 0 1030.12 -1.65 0 986.669 -1.65 0 945.481 -1.65 0 904.073 -1.65 0 879.915 -1.65 0 841.886 -1.65 0 793.515 3.55105 0 772.674 19.1821 0 737.111 45.8547 0 707.498 68.0641 0 675.889 91.7713 0 646.073 114.133 0 610.034 141.163 0 586.545 158.78 0 552.932 183.989 0 519.2 209.288 0 487.633 232.964 0 455.989 256.697 0 427.493 278.069 0 393.224 303.771 0 357.646 330.454 0 327.655 352.948 0 299.093 374.369 0 269.984 396.201 0 233.161 423.819 0 204.898 445.016 0 177.175 465.808 0 147.623 487.972 0 112.978 513.956 0 79.5691 539.013 0 50.7302 560.642 0 25.8008 579.339 0 4.94906 594.978 0</DataArray>
</Points>
<Verts>
 <DataArray type="Int64" Name="connectivity" format="ascii">0 1 2 3 4 5 6 7 8 9 10 11 12 13 14 15 16 17 18 19 20 21 22 23 24 25 26 27 28 29 30 31 32 33 34 35 36 37 38 39 40 41 42 43 44 45 46 47 48 49 50 51 52 53 54 55 56 57 58 59 60 61 62 63 64 65 66 67 68 69 70 71 72 73 74 75 76 77 78 79 80 81 82 83 84 85</DataArray>
 <DataArray type="Int64" Name="offsets" format="ascii">86</DataArray>
</Verts>
<Lines>
 <DataArray type="Int64" Name="connectivity" format="ascii"/>
 <DataArray type="Int64" Name="offsets" format="ascii"/>
</Lines>
<Stripes>
 <DataArray type="Int64" Name="connectivity" format="ascii"/>
 <DataArray type="Int64" Name="offsets" format="ascii"/>
</Stripes>
<Polys>
 <DataArray type="Int64" Name="connectivity" format="ascii"/>
 <DataArray type="Int64" Name="offsets" format="ascii"/>
</Polys>
</Piece>
</PolyData>
</VTKFile>