<?xml version="1.0" encoding="UTF-8" ?>
<VTKFile type="PolyData" version="0.1" order="LittleEndian">
<PolyData>
 <Piece NumberOfPoints="99" NumberOfVerts="1" NumberOfLines="0" NumberOfStrips="0" NumberOfPolys="0">
<PointData>
 <DataArray type="Float64" Name="speed" format="ascii">0.149307 2.3495 2.16113 0.483667 0.0265025 0.219139 0.175803 0.999593 0.701756 0.470132 0.480427 0.0913235 0.291708 0.397008 0.746599 1.08575 1.32819 1.17391 0.947767 1.34475 1.38912 1.59182 1.78988 2.24457 12.8526 13.1189 0.884344 13.1226 13.1993 12.2375 12.9868 13.2043 12.7284 12.9766 13.0875 13.2919 12.7821 12.9358 12.7649 12.6393 13.2956 12.6649 13.0274 12.947 12.9169 12.8639 12.6772 12.8932 12.7751 13.243 12.3431 12.4244 12.9763 13.3375 13.0566 12.4526 12.6774 12.3355 13.4094 12.7222 12.8828 13.3353 13.1669 13.0035 12.6197 12.6113 12.1748 12.826 13.2382 13.2657 12.6827 12.503 12.5641 12.5374 12.4297 12.4821 12.8923 12.4906 12.3629 12.4618 12.3501 13.0568 12.9399 12.3992 12.9096 12.5857 13.2885 13.025 12.5444 13.2069 13.1058 12.1123 12.2717 12.8796 13.1986 12.6731 9.84264 6.2638 0</DataArray>
</PointData>
<CellData/>
<Points>
 <DataArray type="Float64" Name="Points" NumberOfComponents="3" format="ascii">2397.89 600.269 0 2390.82 605.571 0 2382.44 611.86 0 2374.39 617.893 0 2367.99 622.691 0 2361.97 627.209 0 2355.77 631.861 0 2349.54 636.53 0 2342.34 641.929 0 2321.15 657.822 0 2314.53 662.793 0 2308.1 667.613 0 2301.95 672.225 0 2295.7 676.909 0 2289.37 681.659 0 2335.4 647.137 0 2328.37 652.409 0 2282.77 686.61 0 2275.59 691.996 0 2268.45 697.349 0 2261.11 702.852 0 2253.97 708.209 0 2246.11 714.107 0 2237.96 720.217 0 2394.02 592.708 0 2365.96 571.666 0 2229.64 726.454 0 2298.89 521.358 0 2276.36 504.462 0 2237.03 474.966 0 2218.03 460.712 0 2187.1 437.515 0 2166.22 774.024 0 2128.51 802.304 0 2117.47 385.296 0 2086.11 361.773 0 2055.03 338.464 0 2015.16 308.564 0 1982.15 283.809 0 1956.84 264.824 0 1922.46 239.038 0 1883.47 209.792 0 1859.88 192.105 0 1829.27 169.147 0 1799.57 146.871 0 1759.43 116.762 0 1732.88 96.8498 0 1701.1 73.0198 0 1677.47 55.2918 0 1642.44 29.024 0 1615.28 8.65355 0 1585.08 -1.65 0 1535.97 -1.65 0 1498 -1.65 0 1453.46 -1.65 0 1413.69 -1.65 0 1360.88 -1.65 0 1332.32 -1.65 0 1294.72 -1.65 0 1255.63 -1.65 0 1222.46 -1.65 0 1173.93 -1.65 0 1132.95 -1.65 0 1104.27 -1.65 0 1066.26 -1.65 0 1023.31 -1.65 0 989.278 -1.65 0 950.056 -1.65 0 907.989 -1.65 0 878.233 -1.65 0 841.374 -1.65 0 799.307 -1.14903 0 765.707 24.4073 0 737.574 45.5074 0 705.667 69.4379 0 679.372 89.159 0 636.866 121.039 0 609.568 141.512 0 577.192 165.794 0 550.914 185.503 0 522.552 206.774 0 492.751 229.125 0 466.175 249.057 0 433.809 273.332 0 403.919 295.749 0 375.135 317.338 0 343.178 341.306 0 312.698 364.166 0 277.22 390.774 0 246.548 413.778 0 214.668 437.688 0 183.597 460.992 0 158.161 480.069 0 125.799 504.341 0 96.4431 526.357 0 67.7758 547.858 0 27.4051 578.136 0 9.88376 591.277 0 0.1 598.35 0</DataArray>
</Points>
<Verts>
 <DataArray type="Int64" Name="connectivity" format="ascii">0 1 2 3 4 5 6 7 8 9 10 11 12 13 14 15 16 17 18 19 20 21 22 23 24 25 26 27 28 29 30 31 32 33 34 35 36 37 38 39 40 41 42 43 44 45 46 47 48 49 50 51 52 53 54 55 56 57 58 59 60 61 62 63 64 65 66 67 68 69 70 71 72 73 74 75 76 77 78 79 80 81 82 83 84 85 86 87 88 89 90 91 92 93 94 95 96 97 98</DataArray>
 <DataArray type="Int64" Name="offsets" format="ascii">99</DataArray>
</Verts>
<Lines>
 <DataArray type="Int64" Name="connectivity" format="ascii"/>
 <DataArray type="Int64" Name="offsets" format="ascii"/>
</Lines>
<Stripes>
 <DataArray type="Int64" Name="connectivity" format="ascii"/>
 <DataArray type="Int64" Name="offsets" format="ascii"/>
</Stripes>
<Polys>
 <DataArray type="Int64" Name="connectivity" format="ascii"/>
 <DataArray type="Int64" Name="offsets" format="ascii"/>
</Polys>
</Piece>
</PolyData>
</VTKFile>