<?xml version="1.0" encoding="UTF-8" ?>
<VTKFile type="PolyData" version="0.1" order="LittleEndian">
<PolyData>
 <Piece NumberOfPoints="51" NumberOfVerts="1" NumberOfLines="0" NumberOfStrips="0" NumberOfPolys="0">
<PointData>
 <DataArray type="Float64" Name="speed" format="ascii">0.00869544 0.155283 13.0307 13.2582 12.8138 13.14 13.0617 12.5951 12.8359 13.3408 12.7633 13.1131 12.2413 13.2662 12.9945 13.0758 13.0223 12.1363 12.869 12.3447 13.2801 13.4017 13.2674 12.5915 13.3789 13.2083 12.6562 12.7723 13.3828 12.5635 12.4807 13.346 12.157 12.2058 12.1844 12.5981 12.3728 12.6303 12.1291 13.2531 12.1248 12.1621 12.6307 12.5666 12.8685 12.5187 12.4419 12.6118 12.4823 13.1596 12.7145</DataArray>
</PointData>
<CellData/>
<Points>
 <DataArray type="Float64" Name="Points" NumberOfComponents="3" format="ascii">2398.01 600.184 0 2391.9 604.762 0 2389.69 589.461 0 2367.84 573.072 0 2341.9 553.616 0 2306.43 527.014 0 2275.94 504.148 0 2238.68 476.205 0 2209.32 741.696 0 2186.39 758.893 0 2163.57 419.872 0 2136.5 399.565 0 2104.26 820.492 0 2077.12 840.85 0 2049.22 334.11 0 2023.21 314.6 0 2001.77 897.36 0 1968.4 922.384 0 1952.45 261.53 0 1919.55 236.851 0 1894.58 977.756 0 1857.44 1005.61 0 1834.21 172.853 0 1809.67 154.447 0 1780.51 132.577 0 1755.03 113.464 0 1717.68 85.4511 0 1689.04 63.9759 0 1652.34 36.4507 0 1631.84 21.0703 0 1590.79 -1.65 0 1541.82 -1.65 0 1512.77 -1.65 0 1476.53 -1.65 0 1422.53 -1.65 0 1398.86 -1.65 0 1371.27 -1.65 0 1337.07 -1.65 0 1281.21 -1.65 0 1247.29 -1.65 0 1210.41 -1.65 0 1160.46 -1.65 0 1124.41 -1.65 0 1087.89 -1.65 0 1044.87 -1.65 0 1015.8 -1.65 0 972.736 -1.65 0 933.748 -1.65 0 899.682 -1.65 0 862.254 1198.35 0 817.715 1198.35 0</DataArray>
</Points>
<Verts>
 <DataArray type="Int64" Name="connectivity" format="ascii">0 1 2 3 4 5 6 7 8 9 10 11 12 13 14 15 16 17 18 19 20 21 22 23 24 25 26 27 28 29 30 31 32 33 34 35 36 37 38 39 40 41 42 43 44 45 46 47 48 49 50</DataArray>
 <DataArray type="Int64" Name="offsets" format="ascii">51</DataArray>
</Verts>
<Lines>
 <DataArray type="Int64" Name="connectivity" format="ascii"/>
 <DataArray type="Int64" Name="offsets" format="ascii"/>
</Lines>
<Stripes>
 <DataArray type="Int64" Name="connectivity" format="ascii"/>
 <DataArray type="Int64" Name="offsets" format="ascii"/>
</Stripes>
<Polys>
 <DataArray type="Int64" Name="connectivity" format="ascii"/>
 <DataArray type="Int64" Name="offsets" format="ascii"/>
</Polys>
</Piece>
</PolyData>
</VTKFile>