<?xml version="1.0" encoding="UTF-8" ?>
<VTKFile type="PolyData" version="0.1" order="LittleEndian">
<PolyData>
 <Piece NumberOfPoints="37" NumberOfVerts="1" NumberOfLines="0" NumberOfStrips="0" NumberOfPolys="0">
<PointData>
 <DataArray type="Float64" Name="speed" format="ascii">3.64614e-008 1.36291e-006 7.33039e-005 0.00093316 0.0118956 0.0417105 0.253288 0.708303 1.10044 12.9952 12.8112 12.8438 12.1671 12.9861 13.2602 12.7701 12.6715 13.0125 13.2997 12.6006 12.4481 12.6147 13.2405 13.2998 12.9823 12.9513 12.375 13.1002 12.3207 12.3156 13.2632 13.123 13.3693 12.9782 12.1313 13.1895 12.678</DataArray>
</PointData>
<CellData/>
<Points>
 <DataArray type="Float64" Name="Points" NumberOfComponents="3" format="ascii">2398.01 600.181 0 2392.01 604.681 0 2386.01 609.182 0 2380.01 613.683 0 2374 618.185 0 2367.98 622.705 0 2361.91 627.254 0 2355.61 631.977 0 2348.53 637.292 0 2395.2 593.595 0 2359.66 566.935 0 2334.65 548.177 0 2310.57 530.123 0 2279.16 506.563 0 2243.8 480.044 0 2212.62 456.655 0 2185.26 436.135 0 2149.7 409.467 0 2130.09 394.763 0 2099.05 371.479 0 2059.89 342.11 0 2031.69 320.96 0 2006.04 301.719 0 1969.04 273.97 0 1939.44 251.77 0 1913.24 232.123 0 1890.25 214.877 0 1846.24 181.87 0 1809.57 154.373 0 1791.05 140.477 0 1759.03 116.466 0 1728.37 93.4703 0 1697.24 70.122 0 1659.36 41.7114 0 1632.42 21.5088 0 1593.52 -1.65 0 1557.4 -1.65 0</DataArray>
</Points>
<Verts>
 <DataArray type="Int64" Name="connectivity" format="ascii">0 1 2 3 4 5 6 7 8 9 10 11 12 13 14 15 16 17 18 19 20 21 22 23 24 25 26 27 28 29 30 31 32 33 34 35 36</DataArray>
 <DataArray type="Int64" Name="offsets" format="ascii">37</DataArray>
</Verts>
<Lines>
 <DataArray type="Int64" Name="connectivity" format="ascii"/>
 <DataArray type="Int64" Name="offsets" format="ascii"/>
</Lines>
<Stripes>
 <DataArray type="Int64" Name="connectivity" format="ascii"/>
 <DataArray type="Int64" Name="offsets" format="ascii"/>
</Stripes>
<Polys>
 <DataArray type="Int64" Name="connectivity" format="ascii"/>
 <DataArray type="Int64" Name="offsets" format="ascii"/>
</Polys>
</Piece>
</PolyData>
</VTKFile>