<?xml version="1.0" encoding="UTF-8" ?>
<VTKFile type="PolyData" version="0.1" order="LittleEndian">
<PolyData>
 <Piece NumberOfPoints="80" NumberOfVerts="1" NumberOfLines="0" NumberOfStrips="0" NumberOfPolys="0">
<PointData>
 <DataArray type="Float64" Name="speed" format="ascii">10.4167 12.8362 12.9096 12.8256 13.0996 12.9006 12.7892 12.5085 12.2862 12.4848 12.1486 12.4795 13.0102 12.3344 12.3662 12.3189 13.3628 13.3053 12.6957 13.154 12.7101 13.0497 13.1198 12.9046 13.3614 12.4975 13.0416 12.2311 13.2935 13.3785 12.992 12.4061 12.9118 12.2905 13.2698 12.3137 13.3033 12.1633 13.0652 12.9794 13.1796 12.1665 12.8891 12.6968 12.1654 12.5742 12.2676 13.2527 13.0572 12.3058 12.3406 12.7679 12.9305 12.9381 12.9669 12.5709 12.207 13.0776 13.3917 13.1476 12.7581 12.6734 12.1518 12.7466 13.0907 12.5759 12.3607 12.6228 12.8096 12.2335 13.3169 13.1081 13.2635 12.8177 12.6495 12.3929 12.2389 11.6941 6.12433 2.43716</DataArray>
</PointData>
<CellData/>
<Points>
 <DataArray type="Float64" Name="Points" NumberOfComponents="3" format="ascii">2392.09 604.623 0 2365.61 624.478 0 2330.15 651.073 0 2305.32 669.7 0 2272.78 694.101 0 2243.65 715.949 0 2220.88 733.026 0 2190.94 440.397 0 2165.16 774.816 0 2136.96 795.969 0 2102.38 821.901 0 2076.2 841.538 0 2035.49 323.807 0 2022.22 882.024 0 1998.04 900.159 0 1952.85 934.049 0 1932.93 948.987 0 1898.07 975.136 0 1866.7 998.661 0 1835.98 1021.7 0 1806.27 1043.99 0 1778.02 1065.17 0 1753.07 111.997 0 1723.59 89.8827 0 1695.59 1126.99 0 1661.52 1152.55 0 1632.03 1174.67 0 1624.76 15.7607 0 1579.46 1198.35 0 1543.11 1198.35 0 1513.32 -1.65 0 1479.44 -1.65 0 1445.75 1198.35 0 1409.25 1198.35 0 1380.74 -1.65 0 1333.33 -1.65 0 1307.23 1198.35 0 1266.35 1198.35 0 1234.75 1198.35 0 1192.5 -1.65 0 1159.57 1198.35 0 1119.68 1198.35 0 1077.85 -1.65 0 1043.15 1198.35 0 1009.58 1198.35 0 962.602 1198.35 0 934.978 -1.65 0 892.871 1198.35 0 863.541 1198.35 0 839.417 -1.65 0 804.284 1198.35 0 774.204 1177.84 0 747.944 37.7299 0 718.902 59.5112 0 700.365 1122.46 0 664.516 1095.57 0 646.587 113.747 0 613.652 138.449 0 584.41 160.38 0 551.693 184.919 0 528.259 993.381 0 494.848 968.322 0 470.244 246.005 0 437.726 270.394 0 422.861 914.332 0 387.351 887.699 0 362.212 327.03 0 329.076 843.993 0 297.099 820.01 0 265.128 399.843 0 243.974 780.166 0 209.916 754.622 0 186.443 458.857 0 152.079 711.244 0 124.169 690.312 0 92.1919 529.546 0 61.5784 552.506 0 34.2217 622.851 0 10.4926 605.054 0 2.10398 596.963 0</DataArray>
</Points>
<Verts>
 <DataArray type="Int64" Name="connectivity" format="ascii">0 1 2 3 4 5 6 7 8 9 10 11 12 13 14 15 16 17 18 19 20 21 22 23 24 25 26 27 28 29 30 31 32 33 34 35 36 37 38 39 40 41 42 43 44 45 46 47 48 49 50 51 52 53 54 55 56 57 58 59 60 61 62 63 64 65 66 67 68 69 70 71 72 73 74 75 76 77 78 79</DataArray>
 <DataArray type="Int64" Name="offsets" format="ascii">80</DataArray>
</Verts>
<Lines>
 <DataArray type="Int64" Name="connectivity" format="ascii"/>
 <DataArray type="Int64" Name="offsets" format="ascii"/>
</Lines>
<Stripes>
 <DataArray type="Int64" Name="connectivity" format="ascii"/>
 <DataArray type="Int64" Name="offsets" format="ascii"/>
</Stripes>
<Polys>
 <DataArray type="Int64" Name="connectivity" format="ascii"/>
 <DataArray type="Int64" Name="offsets" format="ascii"/>
</Polys>
</Piece>
</PolyData>
</VTKFile>