<?xml version="1.0" encoding="UTF-8" ?>
<VTKFile type="PolyData" version="0.1" order="LittleEndian">
<PolyData>
 <Piece NumberOfPoints="83" NumberOfVerts="1" NumberOfLines="0" NumberOfStrips="0" NumberOfPolys="0">
<PointData>
 <DataArray type="Float64" Name="speed" format="ascii">12.8284 12.7318 13.2622 12.3183 12.803 12.7888 13.2967 13.1162 12.5831 12.1437 13.147 12.8976 12.6173 13.3406 13.2768 12.9045 12.2019 12.9892 13.0256 13.3973 12.8368 12.4321 12.7966 12.8923 13.3764 13.2108 12.262 0.079081 0.363867 2.63588 2.61262 12.6668 13.341 12.2882 12.3983 12.455 13.2024 13.2314 12.3404 12.4076 13.1713 12.7477 12.7072 13.3908 12.5264 12.5455 12.7457 12.4462 12.1487 12.8686 12.6009 12.1679 13.1054 12.4719 12.4659 12.8051 12.9281 13.3994 12.8502 12.5162 13.2544 12.9126 12.1203 12.646 12.2197 13.281 13.161 13.0798 12.4832 12.5797 12.7362 12.9572 12.6584 12.239 12.5474 12.5616 12.5608 13.0551 12.8886 12.3027 12.372 6.24753 0.949853</DataArray>
</PointData>
<CellData/>
<Points>
 <DataArray type="Float64" Name="Points" NumberOfComponents="3" format="ascii">2055.97 339.166 0 1857.33 190.187 0 1807.36 152.713 0 1737.85 100.58 0 1709.88 79.6005 0 1646.32 31.9353 0 1601.24 -1.05981 0 1534.82 -1.65 0 1485.63 -1.65 0 1446.34 -1.65 0 2386.62 587.155 0 1338.33 -1.65 0 1298.56 -1.65 0 1264.35 -1.65 0 1235.6 -1.65 0 1185.35 -1.65 0 2219.21 461.602 0 2179.76 432.016 0 1083.01 -1.65 0 1044.88 -1.65 0 2114.93 383.386 0 2084.39 360.488 0 957.461 -1.65 0 218.788 434.598 0 143.702 490.913 0 88.4754 532.333 0 33.8369 573.312 0 1.92686 601.381 0 7.17927 606.694 0 14.2441 611.993 0 22.6175 618.273 0 799.35 159.733 0 799.35 195.788 0 799.35 239.396 0 799.35 282.087 0 799.35 315.132 0 799.35 347.534 0 799.35 402.651 0 799.35 428.179 0 799.35 464.287 0 799.35 503.832 0 799.35 541.233 0 799.35 587.316 0 799.35 615.292 0 799.35 648.86 0 799.35 699.228 0 799.35 730.18 0 799.35 772.862 0 799.35 809.519 0 799.35 854.657 0 799.35 888.927 0 799.35 917.422 0 799.35 960.814 0 799.35 1004.01 0 799.35 1039.78 0 799.35 1071.33 0 799.35 1116.74 0 799.35 1156.78 0 799.151 1193.63 0 767.831 1173.06 0 736.302 1149.41 0 700.478 1122.55 0 673.702 1102.46 0 641.832 1078.56 0 609.488 1054.3 0 579.064 1031.48 0 554.438 1013.02 0 519.862 987.083 0 493.456 967.279 0 464.023 945.204 0 432.821 921.802 0 401.027 897.957 0 375.255 878.627 0 341.007 852.942 0 310.424 830.004 0 282.308 808.917 0 249.169 784.063 0 191.143 740.543 0 165.564 721.359 0 116.292 684.405 0 63.9563 645.152 0 12.7248 606.729 0 0.920954 598.829 0</DataArray>
</Points>
<Verts>
 <DataArray type="Int64" Name="connectivity" format="ascii">0 1 2 3 4 5 6 7 8 9 10 11 12 13 14 15 16 17 18 19 20 21 22 23 24 25 26 27 28 29 30 31 32 33 34 35 36 37 38 39 40 41 42 43 44 45 46 47 48 49 50 51 52 53 54 55 56 57 58 59 60 61 62 63 64 65 66 67 68 69 70 71 72 73 74 75 76 77 78 79 80 81 82</DataArray>
 <DataArray type="Int64" Name="offsets" format="ascii">83</DataArray>
</Verts>
<Lines>
 <DataArray type="Int64" Name="connectivity" format="ascii"/>
 <DataArray type="Int64" Name="offsets" format="ascii"/>
</Lines>
<Stripes>
 <DataArray type="Int64" Name="connectivity" format="ascii"/>
 <DataArray type="Int64" Name="offsets" format="ascii"/>
</Stripes>
<Polys>
 <DataArray type="Int64" Name="connectivity" format="ascii"/>
 <DataArray type="Int64" Name="offsets" format="ascii"/>
</Polys>
</Piece>
</PolyData>
</VTKFile>