<?xml version="1.0" encoding="UTF-8" ?>
<VTKFile type="PolyData" version="0.1" order="LittleEndian">
<PolyData>
 <Piece NumberOfPoints="80" NumberOfVerts="1" NumberOfLines="0" NumberOfStrips="0" NumberOfPolys="0">
<PointData>
 <DataArray type="Float64" Name="speed" format="ascii">12.3097 13.1449 12.6634 12.862 12.5294 12.1252 12.3847 12.9676 12.3045 12.8796 12.6516 13.2643 12.7689 12.4603 12.7661 12.5812 13.161 13.1188 12.7644 12.9621 12.5502 13.1323 13.0264 13.1259 12.4845 13.3298 12.4184 12.7997 12.9444 12.4858 12.2371 13.3299 12.3656 13.1996 13.0391 12.4534 12.5758 12.7114 12.1358 12.3778 12.961 12.2244 13.3398 12.9268 12.1387 12.1941 13.1755 12.1689 12.5754 13.1379 12.8758 13.1167 13.3752 12.8003 12.5478 12.3044 12.4898 12.7763 12.3902 13.2899 12.6812 13.2258 12.3152 12.498 12.2661 13.1071 12.4205 12.2229 12.4393 13.0032 12.1107 12.462 12.8853 12.6145 12.7963 12.2297 12.2161 12.2827 9.02686 2.79302</DataArray>
</PointData>
<CellData/>
<Points>
 <DataArray type="Float64" Name="Points" NumberOfComponents="3" format="ascii">2382.6 584.14 0 2368.77 622.111 0 2330.82 650.573 0 2305.54 526.347 0 2281.2 687.791 0 2253.56 708.518 0 2226.02 466.71 0 2191.94 441.151 0 2161.36 777.668 0 2142.67 404.197 0 2108.89 378.86 0 2073.46 352.287 0 2049.81 334.55 0 2015.79 309.034 0 1991.79 291.037 0 1961.96 268.666 0 1920.09 237.258 0 1899.36 221.714 0 1864.9 195.867 0 1831.38 170.725 0 1799.45 146.783 0 1775.23 128.617 0 1752.6 1084.24 0 1727.33 1103.19 0 1707.16 77.5659 0 1672.38 51.4785 0 1649.2 1161.79 0 1622.66 1181.69 0 1590 -1.65 0 1560.46 -1.65 0 1517.19 1198.35 0 1485.52 1198.35 0 1457.24 -1.65 0 1424.72 -1.65 0 1393.11 1198.35 0 1352.43 1198.35 0 1324.72 -1.65 0 1291.19 -1.65 0 1244.98 -1.65 0 1223.06 1198.35 0 1183.02 1198.35 0 1134.46 -1.65 0 1101.98 -1.65 0 1081.87 1198.35 0 1044.06 1198.35 0 1019.4 -1.65 0 977.81 -1.65 0 951.967 1198.35 0 915.127 1198.35 0 897.78 -1.65 0 844.372 -1.65 0 814.038 1198.35 0 781.693 1183.46 0 761.867 27.2872 0 719.856 58.7955 0 692.682 79.1766 0 673.148 1102.05 0 646.167 1081.81 0 623.237 131.261 0 591.584 1040.88 0 568.816 172.076 0 539.994 193.693 0 509.284 216.725 0 476.4 241.388 0 445.789 931.528 0 419.723 283.896 0 386.688 308.673 0 357.551 330.526 0 328.766 352.115 0 299.529 374.042 0 262.504 401.811 0 227.805 427.835 0 198.773 449.61 0 157.236 480.763 0 134.804 698.289 0 103.268 674.636 0 86.6023 533.738 0 50.6765 560.682 0 20.3445 612.443 0 3.75121 600.482 0</DataArray>
</Points>
<Verts>
 <DataArray type="Int64" Name="connectivity" format="ascii">0 1 2 3 4 5 6 7 8 9 10 11 12 13 14 15 16 17 18 19 20 21 22 23 24 25 26 27 28 29 30 31 32 33 34 35 36 37 38 39 40 41 42 43 44 45 46 47 48 49 50 51 52 53 54 55 56 57 58 59 60 61 62 63 64 65 66 67 68 69 70 71 72 73 74 75 76 77 78 79</DataArray>
 <DataArray type="Int64" Name="offsets" format="ascii">80</DataArray>
</Verts>
<Lines>
 <DataArray type="Int64" Name="connectivity" format="ascii"/>
 <DataArray type="Int64" Name="offsets" format="ascii"/>
</Lines>
<Stripes>
 <DataArray type="Int64" Name="connectivity" format="ascii"/>
 <DataArray type="Int64" Name="offsets" format="ascii"/>
</Stripes>
<Polys>
 <DataArray type="Int64" Name="connectivity" format="ascii"/>
 <DataArray type="Int64" Name="offsets" format="ascii"/>
</Polys>
</Piece>
</PolyData>
</VTKFile>