<?xml version="1.0" encoding="UTF-8" ?>
<VTKFile type="PolyData" version="0.1" order="LittleEndian">
<PolyData>
 <Piece NumberOfPoints="89" NumberOfVerts="1" NumberOfLines="0" NumberOfStrips="0" NumberOfPolys="0">
<PointData>
 <DataArray type="Float64" Name="speed" format="ascii">4.3722e-007 0.00856156 0.0198961 0.0800835 1.27635 0.489112 1.48635 1.24852 0.64686 0.0660029 0.180539 0.32197 0.706241 1.0461 0.723352 13.0163 12.4312 13.0534 12.9564 13.0897 12.1308 12.8081 12.9805 12.549 13.3282 12.4552 13.3333 12.9441 12.146 13.0064 12.7519 12.2479 12.3558 12.7327 12.4246 12.712 13.1785 12.8336 12.8383 13.1292 12.4764 13.3536 12.7562 12.79 13.0647 12.2996 13.4038 12.1429 12.2857 13.0913 12.3772 12.3373 13.1085 12.7056 12.6055 13.0355 12.7075 13.1982 13.3762 12.8811 13.0513 12.6529 12.1885 12.4749 12.2033 12.4212 12.2232 13.2921 13.3 12.413 12.7055 13.1976 13.2287 12.9381 13.0165 12.4578 12.8289 12.4536 12.3644 13.2599 12.7174 12.5445 13.282 12.9106 12.5597 13.0183 12.8988 8.41452 4.17926</DataArray>
</PointData>
<CellData/>
<Points>
 <DataArray type="Float64" Name="Points" NumberOfComponents="3" format="ascii">2398.01 600.181 0 2392.01 604.682 0 2385.99 609.193 0 2379.93 613.738 0 2373.52 618.545 0 2366.11 624.102 0 2359.31 629.202 0 2351.68 634.924 0 2344.5 640.316 0 2337.95 645.225 0 2331.87 649.784 0 2325.64 654.458 0 2319.18 659.305 0 2312.4 664.389 0 2305.46 669.592 0 2392.16 591.314 0 2364.82 570.806 0 2334.25 547.884 0 2305.5 526.315 0 2265.8 496.544 0 2223.77 465.018 0 2203.68 449.952 0 2172.88 426.854 0 2140.41 402.5 0 2119.17 386.57 0 2078.92 356.384 0 2051.15 335.557 0 2019.85 312.079 0 1978.59 281.138 0 1958.72 266.232 0 1922.24 238.87 0 1901.28 223.151 0 1873.74 202.498 0 1843.37 179.721 0 1803.88 150.101 0 1770.09 124.76 0 1744.43 105.514 0 1714.27 82.895 0 1678.69 56.2066 0 1644.72 30.7331 0 1621.86 13.5858 0 1591.03 -1.65 0 1557.31 -1.65 0 1518.61 -1.65 0 1468.55 -1.65 0 1434.23 -1.65 0 1394.16 -1.65 0 1365.46 -1.65 0 1319.62 -1.65 0 1263.86 -1.65 0 1240.85 -1.65 0 1206.18 -1.65 0 1165.12 -1.65 0 1126.59 -1.65 0 1086.38 -1.65 0 1046.3 -1.65 0 1015.68 -1.65 0 975.61 -1.65 0 934.706 -1.65 0 904.039 -1.65 0 860.289 -1.65 0 822.524 -1.65 0 779.664 13.9392 0 758.919 29.4986 0 724.108 55.6068 0 694.541 77.7824 0 665.102 99.861 0 631.264 125.24 0 600.285 148.474 0 573.376 168.656 0 548.871 187.035 0 510.525 215.795 0 480.51 238.306 0 443.185 266.3 0 414.117 288.101 0 384.305 310.46 0 357.712 330.405 0 333.807 348.334 0 302.015 372.178 0 267.706 397.909 0 235.484 422.076 0 204.227 445.519 0 176.796 466.093 0 148.438 487.361 0 108.676 517.182 0 82.0353 537.163 0 52.6066 559.235 0 21.1496 582.828 0 5.3055 594.711 0</DataArray>
</Points>
<Verts>
 <DataArray type="Int64" Name="connectivity" format="ascii">0 1 2 3 4 5 6 7 8 9 10 11 12 13 14 15 16 17 18 19 20 21 22 23 24 25 26 27 28 29 30 31 32 33 34 35 36 37 38 39 40 41 42 43 44 45 46 47 48 49 50 51 52 53 54 55 56 57 58 59 60 61 62 63 64 65 66 67 68 69 70 71 72 73 74 75 76 77 78 79 80 81 82 83 84 85 86 87 88</DataArray>
 <DataArray type="Int64" Name="offsets" format="ascii">89</DataArray>
</Verts>
<Lines>
 <DataArray type="Int64" Name="connectivity" format="ascii"/>
 <DataArray type="Int64" Name="offsets" format="ascii"/>
</Lines>
<Stripes>
 <DataArray type="Int64" Name="connectivity" format="ascii"/>
 <DataArray type="Int64" Name="offsets" format="ascii"/>
</Stripes>
<Polys>
 <DataArray type="Int64" Name="connectivity" format="ascii"/>
 <DataArray type="Int64" Name="offsets" format="ascii"/>
</Polys>
</Piece>
</PolyData>
</VTKFile>