<?xml version="1.0" encoding="UTF-8" ?>
<VTKFile type="PolyData" version="0.1" order="LittleEndian">
<PolyData>
 <Piece NumberOfPoints="120" NumberOfVerts="1" NumberOfLines="0" NumberOfStrips="0" NumberOfPolys="0">
<PointData>
 <DataArray type="Float64" Name="speed" format="ascii">12.2392 12.7055 12.8088 13.395 12.797 13.1589 12.3206 12.2376 12.8675 13.0241 12.2275 13.2571 12.2026 12.9986 12.3272 12.1327 13.3719 13.0831 13.0345 13.0431 12.3181 12.3869 12.3783 12.24 12.2057 13.028 13.3771 12.4158 13.2284 12.5028 12.3528 12.1355 13.1209 12.2207 12.858 12.9115 12.2929 12.1184 12.9265 13.0172 12.4244 12.4002 13.0429 12.9501 12.9682 12.207 12.2903 13.0521 13.027 12.243 13.2086 12.1819 12.6542 13.2873 12.6683 12.9631 13.2112 13.2543 12.2899 13.4039 12.3591 13.3853 12.3976 12.9818 12.8524 12.8671 6.68348 12.1536 13.1225 13.045 13.3276 13.2351 12.2608 13.399 12.2549 12.9086 12.8878 12.1885 13.0302 12.1242 13.2248 12.7677 13.1527 13.1176 13.1813 12.2558 13.1696 12.7739 13.3318 12.1668 12.5217 12.5341 6.88553 6.81269 13.1935 12.4677 12.8992 12.584 12.4575 13.0501 12.55 13.0911 13.1989 12.3463 13.1471 12.2882 13.3739 13.192 12.5703 12.7208 13.0307 12.3342 13.1131 12.8782 13.386 12.1425 13.2159 12.649 10.0203 3.0457</DataArray>
</PointData>
<CellData/>
<Points>
 <DataArray type="Float64" Name="Points" NumberOfComponents="3" format="ascii">2376.33 616.439 0 2335.94 646.733 0 2257.39 705.642 0 2235.86 721.791 0 2214.23 738.013 0 2183.34 761.181 0 2163.06 776.392 0 2141.55 792.523 0 2107.67 817.935 0 2079.17 839.313 0 2060.82 853.072 0 2035.7 871.914 0 1995.46 902.093 0 1969.23 921.763 0 1937.42 945.619 0 1908.85 967.05 0 1873.01 993.929 0 1832.63 1024.21 0 1806.02 1044.17 0 1782.48 1061.83 0 1753.37 1083.66 0 1727.26 1103.24 0 1656.03 1156.67 0 1605.01 1194.95 0 1578 1198.35 0 1500.72 1198.35 0 1468.36 1198.35 0 1399.38 1198.35 0 1308.58 1198.35 0 1275.24 1198.35 0 1228.47 1198.35 0 1195.68 1198.35 0 1156.48 1198.35 0 1114.12 1198.35 0 1078.5 1198.35 0 1047.12 1198.35 0 1007.73 1198.35 0 920.503 1198.35 0 858.9 1198.35 0 832.83 1198.35 0 801.502 1197.73 0 755.044 1163.47 0 727.593 1142.88 0 693.453 1117.28 0 667.404 1097.74 0 633.236 1072.11 0 604.335 1050.44 0 571.896 1026.11 0 550.792 1010.28 0 2305.76 669.368 0 478.913 956.371 0 459.806 942.041 0 418.206 910.841 0 396.2 894.336 0 363.405 869.74 0 333.626 847.406 0 298.508 821.067 0 269.515 799.322 0 235.148 773.547 0 207.391 752.729 0 175.516 728.823 0 145.867 706.586 0 115.099 683.509 0 88.9476 663.896 0 53.7957 637.532 0 26.0307 616.708 0 10.3744 595.034 0 37.708 574.534 0 60.039 557.786 0 98.7183 528.776 0 122.241 511.134 0 152.423 488.498 0 174.925 471.621 0 204.754 449.249 0 244.952 419.1 0 276.846 395.18 0 311.068 369.513 0 342.137 346.211 0 370.088 325.248 0 401.077 302.006 0 433.767 277.488 0 460.654 257.323 0 491.932 233.865 0 522.341 211.057 0 551.897 188.891 0 585.293 163.844 0 602.611 150.855 0 637.361 124.792 0 673.86 97.4181 0 707.549 72.1507 0 738.744 48.7547 0 768.107 26.7322 0 793.702 7.53569 0 785.091 9.86957 0 762.313 26.9532 0 728.711 52.1542 0 684.249 85.501 0 659.306 104.209 0 637.099 120.864 0 607.21 143.281 0 581.059 162.894 0 539.784 193.85 0 509.639 216.46 0 476.91 241.006 0 453.127 258.843 0 419.296 284.217 0 390.14 306.084 0 361.185 327.8 0 330.014 351.178 0 294.817 377.576 0 265.097 399.866 0 235.1 422.364 0 210.545 440.781 0 181.3 462.715 0 147.143 488.332 0 113.237 513.762 0 83.5199 536.05 0 56.1675 556.564 0 25.4461 579.605 0 3.90663 595.715 0</DataArray>
</Points>
<Verts>
 <DataArray type="Int64" Name="connectivity" format="ascii">0 1 2 3 4 5 6 7 8 9 10 11 12 13 14 15 16 17 18 19 20 21 22 23 24 25 26 27 28 29 30 31 32 33 34 35 36 37 38 39 40 41 42 43 44 45 46 47 48 49 50 51 52 53 54 55 56 57 58 59 60 61 62 63 64 65 66 67 68 69 70 71 72 73 74 75 76 77 78 79 80 81 82 83 84 85 86 87 88 89 90 91 92 93 94 95 96 97 98 99 100 101 102 103 104 105 106 107 108 109 110 111 112 113 114 115 116 117 118 119</DataArray>
 <DataArray type="Int64" Name="offsets" format="ascii">120</DataArray>
</Verts>
<Lines>
 <DataArray type="Int64" Name="connectivity" format="ascii"/>
 <DataArray type="Int64" Name="offsets" format="ascii"/>
</Lines>
<Stripes>
 <DataArray type="Int64" Name="connectivity" format="ascii"/>
 <DataArray type="Int64" Name="offsets" format="ascii"/>
</Stripes>
<Polys>
 <DataArray type="Int64" Name="connectivity" format="ascii"/>
 <DataArray type="Int64" Name="offsets" format="ascii"/>
</Polys>
</Piece>
</PolyData>
</VTKFile>