<?xml version="1.0" encoding="UTF-8" ?>
<VTKFile type="PolyData" version="0.1" order="LittleEndian">
<PolyData>
 <Piece NumberOfPoints="78" NumberOfVerts="1" NumberOfLines="0" NumberOfStrips="0" NumberOfPolys="0">
<PointData>
 <DataArray type="Float64" Name="speed" format="ascii">4.80977e-005 12.4102 10.8322 13.0078 12.3984 12.4689 13.1706 13.2122 12.8314 13.0835 12.7698 12.7517 12.4379 12.1483 12.9759 12.3226 13.3755 12.784 13.3743 12.2646 13.0015 13.1573 12.8146 12.2587 12.1784 13.2532 12.7887 12.7581 12.5634 12.6354 12.8186 13.1665 12.1164 12.286 12.6441 12.3561 12.6222 12.2686 12.9406 12.6027 12.5628 12.1706 12.4246 12.2345 12.2415 12.3913 12.1769 12.5819 12.5814 12.4652 12.8132 12.4354 12.6722 12.7175 12.1248 12.3662 12.5855 12.9922 12.3278 12.7141 13.2321 12.5353 13.3268 12.3392 12.1593 12.3926 12.2063 12.8264 12.4176 12.5725 13.1093 12.5679 12.3331 12.5922 13.0222 13.2777 12.8843 12.8369</DataArray>
</PointData>
<CellData/>
<Points>
 <DataArray type="Float64" Name="Points" NumberOfComponents="3" format="ascii">2398.01 600.181 0 2401.4 598.009 0 2382.47 611.836 0 2340.74 643.136 0 2320.53 537.592 0 2294.51 518.073 0 2261.03 492.961 0 2223.88 730.777 0 2205.06 744.893 0 2174.18 427.827 0 2140.14 402.298 0 2104.52 375.586 0 2089.02 831.919 0 2056.34 856.434 0 2040.02 327.205 0 2014.28 307.9 0 1983.63 910.966 0 1956.36 931.42 0 1936.91 249.879 0 1902.22 972.024 0 1876.2 204.341 0 1842.83 179.318 0 1822.62 1031.72 0 1789.38 1056.65 0 1762.05 118.73 0 1736.61 99.6524 0 1706.6 1118.74 0 1675.87 1141.78 0 1650 34.6907 0 1613.44 7.27555 0 1589.48 -1.65 0 1555.34 -1.65 0 1512.59 -1.65 0 1476.42 -1.65 0 1427.7 -1.65 0 1390.93 1198.35 0 1362.01 1198.35 0 1335.48 -1.65 0 1294.91 -1.65 0 1263.94 1198.35 0 1228.12 1198.35 0 1185.61 -1.65 0 1160.03 -1.65 0 1131 1198.35 0 1093.97 1198.35 0 1068 -1.65 0 1022.83 -1.65 0 994.094 1198.35 0 951.762 1198.35 0 924.595 -1.65 0 888.177 -1.65 0 850.066 -1.65 0 816.795 -1.65 0 779.706 13.9078 0 749.465 36.5885 0 717.111 60.8542 0 696.752 76.1239 0 655.45 107.101 0 621.539 132.533 0 594.244 153.005 0 567.631 172.965 0 527.724 202.895 0 503.808 220.832 0 477.362 240.667 0 448.824 262.07 0 411.573 290.009 0 379.548 314.028 0 350.673 335.684 0 313.708 363.408 0 286.701 383.663 0 253.514 408.554 0 221.428 432.619 0 195.51 452.057 0 165.112 474.856 0 132.867 499.04 0 101.747 522.379 0 75.3204 653.676 0 42.7766 629.268 0</DataArray>
</Points>
<Verts>
 <DataArray type="Int64" Name="connectivity" format="ascii">0 1 2 3 4 5 6 7 8 9 10 11 12 13 14 15 16 17 18 19 20 21 22 23 24 25 26 27 28 29 30 31 32 33 34 35 36 37 38 39 40 41 42 43 44 45 46 47 48 49 50 51 52 53 54 55 56 57 58 59 60 61 62 63 64 65 66 67 68 69 70 71 72 73 74 75 76 77</DataArray>
 <DataArray type="Int64" Name="offsets" format="ascii">78</DataArray>
</Verts>
<Lines>
 <DataArray type="Int64" Name="connectivity" format="ascii"/>
 <DataArray type="Int64" Name="offsets" format="ascii"/>
</Lines>
<Stripes>
 <DataArray type="Int64" Name="connectivity" format="ascii"/>
 <DataArray type="Int64" Name="offsets" format="ascii"/>
</Stripes>
<Polys>
 <DataArray type="Int64" Name="connectivity" format="ascii"/>
 <DataArray type="Int64" Name="offsets" format="ascii"/>
</Polys>
</Piece>
</PolyData>
</VTKFile>