<?xml version="1.0" encoding="UTF-8" ?>
<VTKFile type="PolyData" version="0.1" order="LittleEndian">
<PolyData>
 <Piece NumberOfPoints="15" NumberOfVerts="1" NumberOfLines="0" NumberOfStrips="0" NumberOfPolys="0">
<PointData>
 <DataArray type="Float64" Name="speed" format="ascii">13.3671 13.191 12.1741 12.7734 12.7594 12.1154 13.2538 12.6067 12.486 13.4057 13.3291 12.7227 12.2297 12.7387 12.8353</DataArray>
</PointData>
<CellData/>
<Points>
 <DataArray type="Float64" Name="Points" NumberOfComponents="3" format="ascii">2385.33 586.189 0 2359.01 566.451 0 2311.1 530.52 0 2278.32 505.935 0 2260.2 492.34 0 2224.44 465.525 0 2202.23 448.862 0 2169 423.943 0 2124.12 390.283 0 2103.13 374.538 0 2080.47 357.548 0 2048.19 333.337 0 2016.33 309.441 0 1986.43 287.013 0 1952.19 261.332 0</DataArray>
</Points>
<Verts>
 <DataArray type="Int64" Name="connectivity" format="ascii">0 1 2 3 4 5 6 7 8 9 10 11 12 13 14</DataArray>
 <DataArray type="Int64" Name="offsets" format="ascii">15</DataArray>
</Verts>
<Lines>
 <DataArray type="Int64" Name="connectivity" format="ascii"/>
 <DataArray type="Int64" Name="offsets" format="ascii"/>
</Lines>
<Stripes>
 <DataArray type="Int64" Name="connectivity" format="ascii"/>
 <DataArray type="Int64" Name="offsets" format="ascii"/>
</Stripes>
<Polys>
 <DataArray type="Int64" Name="connectivity" format="ascii"/>
 <DataArray type="Int64" Name="offsets" format="ascii"/>
</Polys>
</Piece>
</PolyData>
</VTKFile>