<?xml version="1.0" encoding="UTF-8" ?>
<VTKFile type="PolyData" version="0.1" order="LittleEndian">
<PolyData>
 <Piece NumberOfPoints="31" NumberOfVerts="1" NumberOfLines="0" NumberOfStrips="0" NumberOfPolys="0">
<PointData>
 <DataArray type="Float64" Name="speed" format="ascii">0.000308758 0.0324582 0.0640136 0.181665 0.422162 1.28058 0.96517 0.930216 12.6909 12.63 12.4276 13.3934 12.817 13.2266 12.544 12.9783 13.315 12.2953 13.2206 12.2844 12.6134 12.314 12.3656 12.9936 12.2219 12.9241 12.1564 12.5276 13.0374 12.6936 12.9585</DataArray>
</PointData>
<CellData/>
<Points>
 <DataArray type="Float64" Name="Points" NumberOfComponents="3" format="ascii">2398.01 600.181 0 2391.99 604.692 0 2385.92 609.25 0 2379.73 613.892 0 2373.34 618.686 0 2366.07 624.135 0 2358.57 629.76 0 2351.29 635.222 0 2365.13 571.04 0 2334.54 548.099 0 2305.23 526.112 0 2271.15 500.556 0 2251.09 485.512 0 2219.34 461.7 0 2183.29 434.661 0 2155.16 413.565 0 2128.92 393.879 0 2089.82 364.559 0 2060.92 342.882 0 2035.39 323.736 0 2013.78 307.527 0 1969.16 274.062 0 1931.36 245.709 0 1912.44 231.521 0 1880.68 207.7 0 1850.21 184.85 0 1821.12 163.03 0 1781.76 133.509 0 1754.98 113.426 0 1718.17 85.8177 0 1686.66 62.1864 0</DataArray>
</Points>
<Verts>
 <DataArray type="Int64" Name="connectivity" format="ascii">0 1 2 3 4 5 6 7 8 9 10 11 12 13 14 15 16 17 18 19 20 21 22 23 24 25 26 27 28 29 30</DataArray>
 <DataArray type="Int64" Name="offsets" format="ascii">31</DataArray>
</Verts>
<Lines>
 <DataArray type="Int64" Name="connectivity" format="ascii"/>
 <DataArray type="Int64" Name="offsets" format="ascii"/>
</Lines>
<Stripes>
 <DataArray type="Int64" Name="connectivity" format="ascii"/>
 <DataArray type="Int64" Name="offsets" format="ascii"/>
</Stripes>
<Polys>
 <DataArray type="Int64" Name="connectivity" format="ascii"/>
 <DataArray type="Int64" Name="offsets" format="ascii"/>
</Polys>
</Piece>
</PolyData>
</VTKFile>