<?xml version="1.0" encoding="UTF-8" ?>
<VTKFile type="PolyData" version="0.1" order="LittleEndian">
<PolyData>
 <Piece NumberOfPoints="94" NumberOfVerts="1" NumberOfLines="0" NumberOfStrips="0" NumberOfPolys="0">
<PointData>
 <DataArray type="Float64" Name="speed" format="ascii">6.61099 4.33073 2.80259 1.25748 0.2965 0.307027 0.62657 0.802656 1.14403 1.362 3.33687 2.75413 1.93605 3.03104 2.16353 1.95489 3.91621 3.97786 3.83141 3.76443 2.20653 0.615878 2.06411 1.74587 10.9965 12.1702 13.3669 13.0787 12.141 12.6658 12.8932 12.6536 13.2308 12.1985 13.0995 12.3374 12.9787 12.7635 13.1684 12.1767 12.1631 13.1594 12.7032 12.9804 13.3127 12.1433 13.177 13.0945 12.4153 13.0173 12.398 12.3919 13.0853 12.2805 12.799 13.1346 13.1654 12.496 12.9711 13.1321 12.6809 12.3382 13.0542 12.4234 12.2483 12.7492 12.2107 13.2179 13.3471 13.1635 13.3316 12.9264 12.9386 12.435 13.4037 12.5511 12.1554 12.1382 12.5511 12.5974 13.0806 13.1308 12.1425 12.8306 12.2043 12.3013 13.3938 12.3283 12.7298 12.5655 13.3325 13.0574 10.2056 3.12173</DataArray>
</PointData>
<CellData/>
<Points>
 <DataArray type="Float64" Name="Points" NumberOfComponents="3" format="ascii">2386.97 608.463 0 2375.31 617.206 0 2365.84 624.311 0 2357.33 630.693 0 2350.1 636.115 0 2343.64 640.954 0 2337.22 645.77 0 2330.62 650.725 0 2323.49 656.067 0 2316.57 661.263 0 2309.25 666.753 0 2299.69 673.922 0 2291.35 680.171 0 2283.71 685.908 0 2274.24 693.004 0 2266.13 699.09 0 2258.41 704.882 0 2247.93 712.742 0 2238.56 719.766 0 2228.74 727.136 0 2219.53 734.04 0 2211.42 740.126 0 2204.05 745.653 0 2196.1 751.613 0 2180.66 763.19 0 2150.13 786.089 0 2118.91 809.502 0 2094.11 828.104 0 2066.88 848.525 0 2035.11 872.352 0 1997.27 295.143 0 1973.21 918.777 0 1936.89 946.017 0 1910.3 965.961 0 1887.6 212.889 0 1852.47 186.543 0 1833.42 1023.62 0 1806.18 1044.06 0 1775.12 128.536 0 1739.95 102.153 0 1722.6 1106.74 0 1691.14 1130.33 0 1669.71 1146.4 0 1633.22 1173.77 0 1616.28 9.40472 0 1575.36 1198.35 0 1545.03 1198.35 0 1504.15 -1.65 0 1474.34 1198.35 0 1432.64 1198.35 0 1391.76 1198.35 0 1373.45 -1.65 0 1331.12 -1.65 0 1323.04 1198.35 0 1262.16 1198.35 0 1231.1 -1.65 0 1211.03 1198.35 0 1165.05 1198.35 0 1128.34 -1.65 0 1092.31 -1.65 0 1049.54 -1.65 0 1016.6 -1.65 0 982.82 -1.65 0 939.585 -1.65 0 905.68 -1.65 0 867.322 -1.65 0 830.155 -1.65 0 791.94 4.73263 0 756.779 31.1034 0 730.647 50.7021 0 692.142 79.581 0 662.874 101.533 0 634.087 123.123 0 602.128 147.092 0 575.149 167.327 0 543.526 191.044 0 515.821 211.823 0 483.821 235.823 0 450.678 260.68 0 413.422 288.622 0 387.826 307.819 0 359.78 328.854 0 332.012 349.68 0 296.19 376.547 0 261.157 402.821 0 240.715 418.153 0 212.706 439.16 0 173.556 468.523 0 145.1 489.865 0 118.209 510.033 0 86.5904 533.747 0 53.3393 558.685 0 23.8971 580.767 0 3.74773 595.825 0</DataArray>
</Points>
<Verts>
 <DataArray type="Int64" Name="connectivity" format="ascii">0 1 2 3 4 5 6 7 8 9 10 11 12 13 14 15 16 17 18 19 20 21 22 23 24 25 26 27 28 29 30 31 32 33 34 35 36 37 38 39 40 41 42 43 44 45 46 47 48 49 50 51 52 53 54 55 56 57 58 59 60 61 62 63 64 65 66 67 68 69 70 71 72 73 74 75 76 77 78 79 80 81 82 83 84 85 86 87 88 89 90 91 92 93</DataArray>
 <DataArray type="Int64" Name="offsets" format="ascii">94</DataArray>
</Verts>
<Lines>
 <DataArray type="Int64" Name="connectivity" format="ascii"/>
 <DataArray type="Int64" Name="offsets" format="ascii"/>
</Lines>
<Stripes>
 <DataArray type="Int64" Name="connectivity" format="ascii"/>
 <DataArray type="Int64" Name="offsets" format="ascii"/>
</Stripes>
<Polys>
 <DataArray type="Int64" Name="connectivity" format="ascii"/>
 <DataArray type="Int64" Name="offsets" format="ascii"/>
</Polys>
</Piece>
</PolyData>
</VTKFile>