<?xml version="1.0" encoding="UTF-8" ?>
<VTKFile type="PolyData" version="0.1" order="LittleEndian">
<PolyData>
 <Piece NumberOfPoints="106" NumberOfVerts="1" NumberOfLines="0" NumberOfStrips="0" NumberOfPolys="0">
<PointData>
 <DataArray type="Float64" Name="speed" format="ascii">12.3102 12.4948 12.2568 12.9558 13.3037 12.9569 13.0712 13.1895 12.857 12.8863 13.2904 13.0511 12.408 13.3461 12.1687 12.3691 13.1809 9.12643 11.9903 13.2613 12.8425 12.7826 12.2462 12.4563 12.8927 12.7713 13.0163 12.1286 13.1119 13.0113 12.219 12.223 12.6903 12.876 12.7569 12.9699 12.7466 12.7414 12.9586 12.3242 13.3231 12.1207 13.1561 12.1426 13.3747 12.8645 13.0452 13.1791 12.3199 12.6634 12.75 12.8853 12.2693 12.1881 12.3784 12.5334 13.372 12.498 13.3542 12.7304 12.3553 12.359 13.1246 13.1361 12.2068 12.6045 13.3722 12.9749 12.5468 13.3972 12.293 13.2291 13.1292 12.5566 12.9958 12.7331 13.1212 12.4298 12.8734 12.2942 12.2789 12.8791 12.2704 12.2242 13.3243 12.1854 12.213 12.2531 13.2458 12.8193 12.8345 12.5757 12.6888 12.4336 12.6771 13.0068 12.7343 7.39418 2.44574 5.52471 4.91021 10.825 13.0535 12.4489 13.3415 12.8658</DataArray>
</PointData>
<CellData/>
<Points>
 <DataArray type="Float64" Name="Points" NumberOfComponents="3" format="ascii">2196.37 751.413 0 2164.34 775.43 0 2132.84 799.056 0 2103.58 821.005 0 2069.79 846.342 0 2043.56 866.019 0 2010.71 890.652 0 1980.96 912.97 0 1952.32 934.447 0 1920.27 958.484 0 1876.15 991.575 0 1848.68 1012.17 0 1812.16 1039.57 0 1779.51 1064.05 0 1690.98 1130.45 0 1671.44 1145.11 0 1632.59 1174.25 0 1605.79 1194.23 0 1602.65 1169.34 0 1602.65 1138.39 0 1602.65 1097.55 0 1602.65 1060.36 0 1602.65 1022.99 0 1602.65 990.362 0 1602.65 945.998 0 1602.65 919.792 0 1602.65 870.151 0 1602.65 826.941 0 1602.65 782.968 0 1602.65 745.798 0 1602.65 717.808 0 1602.65 671.223 0 1602.65 638.973 0 1602.65 590.921 0 1602.65 555.39 0 1602.65 527.149 0 1602.65 487.196 0 1602.65 449.662 0 1602.65 415.578 0 1602.65 372.78 0 1602.65 333.589 0 1602.65 296.799 0 1602.65 254.931 0 1602.65 211.299 0 1602.65 182.764 0 1734.13 1098.09 0 1709.61 79.4035 0 1676.35 54.4571 0 1637.32 25.1832 0 1606.09 1.76825 0 1578.73 -1.65 0 1532.47 -1.65 0 1496.53 -1.65 0 1457.54 -1.65 0 1414.19 -1.65 0 1379.76 -1.65 0 1355.73 -1.65 0 1311.29 -1.65 0 1279.97 -1.65 0 1224.13 -1.65 0 1193.57 -1.65 0 1155.49 -1.65 0 1117.76 -1.65 0 1077.88 -1.65 0 1040.53 -1.65 0 1018.4 1198.35 0 977.444 -1.65 0 941.767 -1.65 0 908.384 -1.65 0 854.494 -1.65 0 826.367 1198.35 0 804.151 -1.65 0 770.741 20.6318 0 733.466 48.5882 0 709.516 66.5508 0 675.874 91.7827 0 649.375 111.656 0 610.462 140.842 0 583.061 161.392 0 553.97 183.211 0 517.875 210.282 0 493.468 967.288 0 468.358 247.42 0 439.548 269.028 0 409.426 291.619 0 376.137 316.586 0 348.51 337.306 0 316.924 360.996 0 290.999 380.44 0 255.093 407.37 0 232.151 424.576 0 193.086 453.875 0 168.727 472.144 0 136.831 496.066 0 104.401 520.389 0 77.58 540.505 0 46.5137 563.805 0 15.7588 586.871 0 2.21384 599.584 0 2394.64 602.711 0 2383.87 610.783 0 2367.73 622.887 0 2324.41 655.378 0 2304.86 670.04 0 2259.83 703.815 0 2219.49 734.067 0</DataArray>
</Points>
<Verts>
 <DataArray type="Int64" Name="connectivity" format="ascii">0 1 2 3 4 5 6 7 8 9 10 11 12 13 14 15 16 17 18 19 20 21 22 23 24 25 26 27 28 29 30 31 32 33 34 35 36 37 38 39 40 41 42 43 44 45 46 47 48 49 50 51 52 53 54 55 56 57 58 59 60 61 62 63 64 65 66 67 68 69 70 71 72 73 74 75 76 77 78 79 80 81 82 83 84 85 86 87 88 89 90 91 92 93 94 95 96 97 98 99 100 101 102 103 104 105</DataArray>
 <DataArray type="Int64" Name="offsets" format="ascii">106</DataArray>
</Verts>
<Lines>
 <DataArray type="Int64" Name="connectivity" format="ascii"/>
 <DataArray type="Int64" Name="offsets" format="ascii"/>
</Lines>
<Stripes>
 <DataArray type="Int64" Name="connectivity" format="ascii"/>
 <DataArray type="Int64" Name="offsets" format="ascii"/>
</Stripes>
<Polys>
 <DataArray type="Int64" Name="connectivity" format="ascii"/>
 <DataArray type="Int64" Name="offsets" format="ascii"/>
</Polys>
</Piece>
</PolyData>
</VTKFile>