<?xml version="1.0" encoding="UTF-8" ?>
<VTKFile type="PolyData" version="0.1" order="LittleEndian">
<PolyData>
 <Piece NumberOfPoints="106" NumberOfVerts="1" NumberOfLines="0" NumberOfStrips="0" NumberOfPolys="0">
<PointData>
 <DataArray type="Float64" Name="speed" format="ascii">12.8908 13.3761 13.0192 12.6375 12.2437 12.7811 12.2671 12.6961 12.2386 13.12 12.9883 12.9128 12.3558 12.9787 13.2631 12.511 12.2732 12.4287 12.7969 12.1564 12.4579 12.9593 12.8797 13.1031 13.3766 13.0908 12.527 13.0844 12.747 13.0782 12.8433 13.3291 13.2408 12.5587 12.8128 12.2857 12.7366 13.2271 12.8026 13.1682 12.966 12.2581 12.7619 12.4888 13.0594 12.3445 10.1646 4.50693 12.2822 13.1429 12.976 13.1599 13.2845 12.928 12.9427 12.9328 13.2313 12.6371 12.8657 12.5961 13.1233 12.6148 13.3679 12.4152 13.3426 12.746 12.4442 12.8715 12.558 12.7566 12.824 12.2182 13.3808 12.6268 12.9622 12.1722 12.5101 13.0111 12.7145 12.779 12.9069 12.2175 12.2685 12.7695 12.7218 13.3014 12.2186 13.3611 13.2557 12.495 12.3911 13.2986 13.1861 13.0054 13.1367 13.2326 12.2317 12.9916 12.6181 13.2365 12.7162 12.8866 12.8512 13.1943 8.65749 1.59259</DataArray>
</PointData>
<CellData/>
<Points>
 <DataArray type="Float64" Name="Points" NumberOfComponents="3" format="ascii">2386.47 587.045 0 2348.48 558.551 0 2322.94 539.396 0 2289.35 514.205 0 2254.92 488.382 0 2228.67 468.695 0 2195.64 443.922 0 2177.22 430.105 0 2144.02 405.211 0 2121.83 388.568 0 2079.07 356.494 0 2040.9 327.868 0 2011.53 305.839 0 1982.63 284.166 0 1963.26 269.638 0 1922.72 239.235 0 1880.96 207.911 0 1848.23 183.366 0 1812.18 156.329 0 1789.4 139.245 0 1764.52 120.58 0 1738.72 101.229 0 1711.33 80.6924 0 1674.57 53.1209 0 1650.35 34.9574 0 1614.16 7.81108 0 1583.48 -1.65 0 1558.74 -1.65 0 1506.65 -1.65 0 1472.97 -1.65 0 1432.32 -1.65 0 1372.91 -1.65 0 1338.59 -1.65 0 1313.24 -1.65 0 1271.32 -1.65 0 1242.08 -1.65 0 1218.49 -1.65 0 1160.93 -1.65 0 1124.29 -1.65 0 1089.75 -1.65 0 1065.84 -1.65 0 1005.06 -1.65 0 973.805 -1.65 0 934.873 -1.65 0 890.293 -1.65 0 853.728 -1.65 0 815.028 -1.65 0 799.35 9.73749 0 799.35 42.9329 0 799.35 75.6456 0 799.35 104.599 0 799.35 147.97 0 799.35 186.013 0 799.35 226.98 0 799.35 268.851 0 799.35 298.018 0 799.35 337.973 0 799.35 383.187 0 799.35 413.447 0 799.35 452.482 0 799.35 495.116 0 799.35 529.617 0 799.35 567.178 0 799.35 602.675 0 799.35 649.019 0 799.35 680.157 0 799.35 712.975 0 799.35 759.778 0 799.35 795.663 0 799.35 839.73 0 799.35 879.473 0 799.35 910.972 0 799.35 946.49 0 799.35 991.623 0 799.35 1023.93 0 799.35 1075.81 0 799.35 1105.07 0 799.35 1138.96 0 799.35 1182.18 0 772.697 1176.71 0 746.376 1156.97 0 716.724 1134.73 0 690.317 1114.92 0 662.4 1093.99 0 623.086 1064.5 0 594.258 1042.88 0 560.116 1017.27 0 532.118 996.275 0 507.871 978.09 0 476.923 954.879 0 440.849 927.823 0 406.93 902.384 0 380.203 882.338 0 344.255 855.377 0 313.545 832.345 0 290.118 814.774 0 259.211 791.594 0 225.459 766.28 0 199.375 746.717 0 160.893 717.855 0 132.429 696.507 0 106.54 677.091 0 72.7945 651.781 0 42.6384 629.164 0 18.2923 610.904 0 1.47647 599.154 0</DataArray>
</Points>
<Verts>
 <DataArray type="Int64" Name="connectivity" format="ascii">0 1 2 3 4 5 6 7 8 9 10 11 12 13 14 15 16 17 18 19 20 21 22 23 24 25 26 27 28 29 30 31 32 33 34 35 36 37 38 39 40 41 42 43 44 45 46 47 48 49 50 51 52 53 54 55 56 57 58 59 60 61 62 63 64 65 66 67 68 69 70 71 72 73 74 75 76 77 78 79 80 81 82 83 84 85 86 87 88 89 90 91 92 93 94 95 96 97 98 99 100 101 102 103 104 105</DataArray>
 <DataArray type="Int64" Name="offsets" format="ascii">106</DataArray>
</Verts>
<Lines>
 <DataArray type="Int64" Name="connectivity" format="ascii"/>
 <DataArray type="Int64" Name="offsets" format="ascii"/>
</Lines>
<Stripes>
 <DataArray type="Int64" Name="connectivity" format="ascii"/>
 <DataArray type="Int64" Name="offsets" format="ascii"/>
</Stripes>
<Polys>
 <DataArray type="Int64" Name="connectivity" format="ascii"/>
 <DataArray type="Int64" Name="offsets" format="ascii"/>
</Polys>
</Piece>
</PolyData>
</VTKFile>