<?xml version="1.0" encoding="UTF-8"?>

<!-- generated on Tue Aug  9 14:13:50 2016 by SUMO Version 0.27.1
<?xml version="1.0" encoding="UTF-8"?>

<configuration xmlns:xsi="http://www.w3.org/2001/XMLSchema-instance" xsi:noNamespaceSchemaLocation="http://sumo.dlr.de/xsd/sumoConfiguration.xsd">

    <input>
        <net-file value="./config/../network/simple.net.xml"/>
        <route-files value="./config/../trips/trip.xml"/>
        <additional-files value="./config/additional_3to5__500_1000.xml"/>
    </input>

    <output>
        <summary-output value="./config/../output/summary_3to5__500_1000.xml"/>
    </output>

    <report>
        <log value="./config/../output/report_3to5__500_1000.xml"/>
    </report>

</configuration>
-->

<meandata xmlns:xsi="http://www.w3.org/2001/XMLSchema-instance" xsi:noNamespaceSchemaLocation="http://sumo.dlr.de/xsd/meandata_file.xsd">
    <interval begin="0.00" end="500.00" id="1">
        <edge id="-1to0" sampledSeconds="330.29" traveltime="0.04" density="6605.70" occupancy="3302.85" waitingTime="1.00" speed="2.71" departed="179" arrived="0" entered="0" left="179" laneChangedFrom="0" laneChangedTo="0"/>
        <edge id="0to1" sampledSeconds="5351.58" traveltime="78.37" density="10.85" occupancy="5.43" waitingTime="0.00" speed="12.58" departed="0" arrived="0" entered="70" left="66" laneChangedFrom="0" laneChangedTo="0"/>
        <edge id="0to2" sampledSeconds="7635.50" traveltime="78.75" density="15.49" occupancy="7.74" waitingTime="0.00" speed="12.52" departed="0" arrived="0" entered="109" left="85" laneChangedFrom="0" laneChangedTo="0"/>
        <edge id="1to0" sampledSeconds="0.00" departed="0" arrived="0" entered="0" left="0" laneChangedFrom="0" laneChangedTo="0"/>
        <edge id="1to2" sampledSeconds="0.00" departed="0" arrived="0" entered="0" left="0" laneChangedFrom="0" laneChangedTo="0"/>
        <edge id="1to3" sampledSeconds="4002.75" traveltime="62.21" density="10.09" occupancy="5.04" waitingTime="0.00" speed="12.76" departed="0" arrived="0" entered="66" left="61" laneChangedFrom="0" laneChangedTo="0"/>
        <edge id="2to0" sampledSeconds="0.00" departed="0" arrived="0" entered="0" left="0" laneChangedFrom="0" laneChangedTo="0"/>
        <edge id="2to4" sampledSeconds="4732.84" traveltime="62.22" density="11.92" occupancy="5.96" waitingTime="0.00" speed="12.76" departed="0" arrived="0" entered="85" left="68" laneChangedFrom="0" laneChangedTo="0"/>
        <edge id="3to4" sampledSeconds="0.00" departed="0" arrived="0" entered="0" left="0" laneChangedFrom="0" laneChangedTo="0"/>
        <edge id="3to5" sampledSeconds="4913.75" traveltime="81.45" density="9.93" occupancy="4.97" waitingTime="51.00" speed="12.15" departed="0" arrived="0" entered="61" left="55" laneChangedFrom="0" laneChangedTo="0"/>
        <edge id="4to2" sampledSeconds="0.00" departed="0" arrived="0" entered="0" left="0" laneChangedFrom="0" laneChangedTo="0"/>
        <edge id="4to3" sampledSeconds="0.00" departed="0" arrived="0" entered="0" left="0" laneChangedFrom="0" laneChangedTo="0"/>
        <edge id="4to5" sampledSeconds="4291.19" traveltime="77.57" density="8.67" occupancy="4.34" waitingTime="0.00" speed="12.76" departed="0" arrived="0" entered="68" left="45" laneChangedFrom="0" laneChangedTo="0"/>
        <edge id="5to-5" sampledSeconds="34.40" traveltime="0.01" density="687.96" occupancy="343.98" waitingTime="0.00" speed="8.72" departed="0" arrived="100" entered="100" left="0" laneChangedFrom="0" laneChangedTo="0"/>
        <edge id="5to3" sampledSeconds="0.00" departed="0" arrived="0" entered="0" left="0" laneChangedFrom="0" laneChangedTo="0"/>
    </interval>
    <interval begin="500.00" end="1000.00" id="2">
        <edge id="-1to0" sampledSeconds="312.45" traveltime="0.04" density="6249.07" occupancy="3124.54" waitingTime="0.00" speed="2.74" departed="172" arrived="0" entered="0" left="172" laneChangedFrom="0" laneChangedTo="0"/>
        <edge id="0to1" sampledSeconds="10003.98" traveltime="78.41" density="20.29" occupancy="10.14" waitingTime="0.00" speed="12.58" departed="0" arrived="0" entered="137" left="117" laneChangedFrom="0" laneChangedTo="0"/>
        <edge id="0to2" sampledSeconds="3509.19" traveltime="78.26" density="7.12" occupancy="3.56" waitingTime="0.00" speed="12.60" departed="0" arrived="0" entered="34" left="55" laneChangedFrom="0" laneChangedTo="0"/>
        <edge id="1to0" sampledSeconds="0.00" departed="0" arrived="0" entered="0" left="0" laneChangedFrom="0" laneChangedTo="0"/>
        <edge id="1to2" sampledSeconds="0.00" departed="0" arrived="0" entered="0" left="0" laneChangedFrom="0" laneChangedTo="0"/>
        <edge id="1to3" sampledSeconds="6811.22" traveltime="62.20" density="17.16" occupancy="8.58" waitingTime="0.00" speed="12.76" departed="0" arrived="0" entered="116" left="102" laneChangedFrom="0" laneChangedTo="0"/>
        <edge id="2to0" sampledSeconds="0.00" departed="0" arrived="0" entered="0" left="0" laneChangedFrom="0" laneChangedTo="0"/>
        <edge id="2to4" sampledSeconds="3989.51" traveltime="62.30" density="10.05" occupancy="5.03" waitingTime="0.00" speed="12.74" departed="0" arrived="0" entered="55" left="71" laneChangedFrom="0" laneChangedTo="0"/>
        <edge id="3to4" sampledSeconds="8539.29" traveltime="98.75" density="14.38" occupancy="7.19" waitingTime="244.00" speed="12.02" departed="0" arrived="0" entered="102" left="70" laneChangedFrom="0" laneChangedTo="0"/>
        <edge id="3to5" sampledSeconds="114.91" traveltime="117.52" density="0.23" occupancy="0.12" waitingTime="22.00" speed="8.42" departed="0" arrived="0" entered="0" left="6" laneChangedFrom="0" laneChangedTo="0"/>
        <edge id="4to2" sampledSeconds="0.00" departed="0" arrived="0" entered="0" left="0" laneChangedFrom="0" laneChangedTo="0"/>
        <edge id="4to3" sampledSeconds="0.00" departed="0" arrived="0" entered="0" left="0" laneChangedFrom="0" laneChangedTo="0"/>
        <edge id="4to5" sampledSeconds="11138.27" traveltime="77.81" density="22.51" occupancy="11.26" waitingTime="0.00" speed="12.72" departed="0" arrived="0" entered="141" left="140" laneChangedFrom="0" laneChangedTo="0"/>
        <edge id="5to-5" sampledSeconds="49.15" traveltime="0.01" density="982.91" occupancy="491.45" waitingTime="0.00" speed="12.48" departed="0" arrived="146" entered="146" left="0" laneChangedFrom="0" laneChangedTo="0"/>
        <edge id="5to3" sampledSeconds="0.00" departed="0" arrived="0" entered="0" left="0" laneChangedFrom="0" laneChangedTo="0"/>
    </interval>
    <interval begin="1000.00" end="1500.00" id="3">
        <edge id="-1to0" sampledSeconds="273.35" traveltime="0.04" density="5466.99" occupancy="2733.49" waitingTime="0.00" speed="2.73" departed="149" arrived="0" entered="0" left="149" laneChangedFrom="0" laneChangedTo="0"/>
        <edge id="0to1" sampledSeconds="4758.26" traveltime="78.24" density="9.65" occupancy="4.82" waitingTime="0.00" speed="12.60" departed="0" arrived="0" entered="49" left="68" laneChangedFrom="0" laneChangedTo="0"/>
        <edge id="0to2" sampledSeconds="8104.40" traveltime="78.50" density="16.44" occupancy="8.22" waitingTime="0.00" speed="12.56" departed="0" arrived="0" entered="101" left="102" laneChangedFrom="0" laneChangedTo="0"/>
        <edge id="1to0" sampledSeconds="0.00" departed="0" arrived="0" entered="0" left="0" laneChangedFrom="0" laneChangedTo="0"/>
        <edge id="1to2" sampledSeconds="0.00" departed="0" arrived="0" entered="0" left="0" laneChangedFrom="0" laneChangedTo="0"/>
        <edge id="1to3" sampledSeconds="4793.52" traveltime="62.23" density="12.08" occupancy="6.04" waitingTime="0.00" speed="12.75" departed="0" arrived="0" entered="69" left="86" laneChangedFrom="0" laneChangedTo="0"/>
        <edge id="2to0" sampledSeconds="0.00" departed="0" arrived="0" entered="0" left="0" laneChangedFrom="0" laneChangedTo="0"/>
        <edge id="2to4" sampledSeconds="5878.51" traveltime="62.21" density="14.81" occupancy="7.41" waitingTime="0.00" speed="12.76" departed="0" arrived="0" entered="102" left="84" laneChangedFrom="0" laneChangedTo="0"/>
        <edge id="3to4" sampledSeconds="3438.58" traveltime="98.16" density="5.79" occupancy="2.90" waitingTime="7.00" speed="12.10" departed="0" arrived="0" entered="19" left="51" laneChangedFrom="0" laneChangedTo="0"/>
        <edge id="3to5" sampledSeconds="8041.97" traveltime="119.44" density="16.25" occupancy="8.13" waitingTime="210.00" speed="8.29" departed="0" arrived="0" entered="67" left="67" laneChangedFrom="0" laneChangedTo="0"/>
        <edge id="4to2" sampledSeconds="0.00" departed="0" arrived="0" entered="0" left="0" laneChangedFrom="0" laneChangedTo="0"/>
        <edge id="4to3" sampledSeconds="0.00" departed="0" arrived="0" entered="0" left="0" laneChangedFrom="0" laneChangedTo="0"/>
        <edge id="4to5" sampledSeconds="10422.28" traveltime="77.84" density="21.06" occupancy="10.53" waitingTime="0.00" speed="12.71" departed="0" arrived="0" entered="135" left="133" laneChangedFrom="0" laneChangedTo="0"/>
        <edge id="5to-5" sampledSeconds="68.42" traveltime="0.01" density="1368.43" occupancy="684.21" waitingTime="0.00" speed="10.47" departed="0" arrived="200" entered="200" left="0" laneChangedFrom="0" laneChangedTo="0"/>
        <edge id="5to3" sampledSeconds="0.00" departed="0" arrived="0" entered="0" left="0" laneChangedFrom="0" laneChangedTo="0"/>
    </interval>
    <interval begin="1500.00" end="1660.00" id="4">
        <edge id="-1to0" sampledSeconds="0.00" departed="0" arrived="0" entered="0" left="0" laneChangedFrom="0" laneChangedTo="0"/>
        <edge id="0to1" sampledSeconds="47.36" traveltime="77.49" density="0.30" occupancy="0.15" waitingTime="0.00" speed="12.73" departed="0" arrived="0" entered="0" left="5" laneChangedFrom="0" laneChangedTo="0"/>
        <edge id="0to2" sampledSeconds="15.17" traveltime="77.41" density="0.10" occupancy="0.05" waitingTime="0.00" speed="12.74" departed="0" arrived="0" entered="0" left="2" laneChangedFrom="0" laneChangedTo="0"/>
        <edge id="1to0" sampledSeconds="0.00" departed="0" arrived="0" entered="0" left="0" laneChangedFrom="0" laneChangedTo="0"/>
        <edge id="1to2" sampledSeconds="0.00" departed="0" arrived="0" entered="0" left="0" laneChangedFrom="0" laneChangedTo="0"/>
        <edge id="1to3" sampledSeconds="420.54" traveltime="62.35" density="3.31" occupancy="1.66" waitingTime="0.00" speed="12.73" departed="0" arrived="0" entered="5" left="7" laneChangedFrom="0" laneChangedTo="0"/>
        <edge id="2to0" sampledSeconds="0.00" departed="0" arrived="0" entered="0" left="0" laneChangedFrom="0" laneChangedTo="0"/>
        <edge id="2to4" sampledSeconds="681.05" traveltime="62.23" density="5.36" occupancy="2.68" waitingTime="0.00" speed="12.76" departed="0" arrived="0" entered="2" left="21" laneChangedFrom="0" laneChangedTo="0"/>
        <edge id="3to4" sampledSeconds="0.00" departed="0" arrived="0" entered="0" left="0" laneChangedFrom="0" laneChangedTo="0"/>
        <edge id="3to5" sampledSeconds="564.33" traveltime="80.22" density="3.56" occupancy="1.78" waitingTime="6.00" speed="12.34" departed="0" arrived="0" entered="7" left="7" laneChangedFrom="0" laneChangedTo="0"/>
        <edge id="4to2" sampledSeconds="0.00" departed="0" arrived="0" entered="0" left="0" laneChangedFrom="0" laneChangedTo="0"/>
        <edge id="4to3" sampledSeconds="0.00" departed="0" arrived="0" entered="0" left="0" laneChangedFrom="0" laneChangedTo="0"/>
        <edge id="4to5" sampledSeconds="2673.35" traveltime="77.51" density="16.88" occupancy="8.44" waitingTime="0.00" speed="12.77" departed="0" arrived="0" entered="21" left="47" laneChangedFrom="0" laneChangedTo="0"/>
        <edge id="5to-5" sampledSeconds="18.49" traveltime="0.01" density="1155.65" occupancy="577.82" waitingTime="0.00" speed="12.17" departed="0" arrived="54" entered="54" left="0" laneChangedFrom="0" laneChangedTo="0"/>
        <edge id="5to3" sampledSeconds="0.00" departed="0" arrived="0" entered="0" left="0" laneChangedFrom="0" laneChangedTo="0"/>
    </interval>
</meandata>
