<?xml version="1.0" encoding="UTF-8"?>

<!-- generated on 07/21/16 09:22:04 by SUMO Version 0.27.0
<?xml version="1.0" encoding="UTF-8"?>

<configuration xmlns:xsi="http://www.w3.org/2001/XMLSchema-instance" xsi:noNamespaceSchemaLocation="http://sumo.dlr.de/xsd/sumoConfiguration.xsd">

    <input>
        <net-file value="./../network/simple.net.xml"/>
        <route-files value="./../trips/trip.xml"/>
        <additional-files value="./additional_1to3__0_500.xml"/>
    </input>

    <output>
        <summary-output value="./../output/summary_1to3__0_500.xml"/>
    </output>

    <report>
        <log value="./../output/report_1to3__0_500.xml"/>
    </report>

</configuration>
-->

<meandata xmlns:xsi="http://www.w3.org/2001/XMLSchema-instance" xsi:noNamespaceSchemaLocation="http://sumo.dlr.de/xsd/meandata_file.xsd">
    <interval begin="0.00" end="500.00" id="1">
        <edge id="-1to0" sampledSeconds="315.13" traveltime="0.04" density="6302.65" occupancy="3151.33" waitingTime="0.00" speed="2.70" departed="170" arrived="0" entered="0" left="170" laneChangedFrom="0" laneChangedTo="0"/>
        <edge id="0to1" sampledSeconds="11214.50" traveltime="78.46" density="22.74" occupancy="11.37" waitingTime="0.00" speed="12.57" departed="0" arrived="0" entered="155" left="129" laneChangedFrom="0" laneChangedTo="0"/>
        <edge id="0to2" sampledSeconds="1103.07" traveltime="78.39" density="2.24" occupancy="1.12" waitingTime="0.00" speed="12.58" departed="0" arrived="0" entered="14" left="14" laneChangedFrom="0" laneChangedTo="0"/>
        <edge id="1to0" sampledSeconds="0.00" departed="0" arrived="0" entered="0" left="0" laneChangedFrom="0" laneChangedTo="0"/>
        <edge id="1to2" sampledSeconds="10796.03" traveltime="94.12" density="18.24" occupancy="9.12" waitingTime="0.00" speed="12.58" departed="0" arrived="0" entered="129" left="98" laneChangedFrom="0" laneChangedTo="0"/>
        <edge id="1to3" sampledSeconds="0.00" departed="0" arrived="0" entered="0" left="0" laneChangedFrom="0" laneChangedTo="0"/>
        <edge id="2to0" sampledSeconds="0.00" departed="0" arrived="0" entered="0" left="0" laneChangedFrom="0" laneChangedTo="0"/>
        <edge id="2to4" sampledSeconds="6382.82" traveltime="62.49" density="16.08" occupancy="8.04" waitingTime="0.00" speed="12.70" departed="0" arrived="0" entered="112" left="91" laneChangedFrom="0" laneChangedTo="0"/>
        <edge id="3to4" sampledSeconds="0.00" departed="0" arrived="0" entered="0" left="0" laneChangedFrom="0" laneChangedTo="0"/>
        <edge id="3to5" sampledSeconds="0.00" departed="0" arrived="0" entered="0" left="0" laneChangedFrom="0" laneChangedTo="0"/>
        <edge id="4to2" sampledSeconds="0.00" departed="0" arrived="0" entered="0" left="0" laneChangedFrom="0" laneChangedTo="0"/>
        <edge id="4to3" sampledSeconds="0.00" departed="0" arrived="0" entered="0" left="0" laneChangedFrom="0" laneChangedTo="0"/>
        <edge id="4to5" sampledSeconds="6071.47" traveltime="77.58" density="12.27" occupancy="6.14" waitingTime="0.00" speed="12.76" departed="0" arrived="0" entered="91" left="65" laneChangedFrom="0" laneChangedTo="0"/>
        <edge id="5to-5" sampledSeconds="21.60" traveltime="0.01" density="432.09" occupancy="216.05" waitingTime="0.00" speed="12.77" departed="0" arrived="64" entered="64" left="0" laneChangedFrom="0" laneChangedTo="0"/>
        <edge id="5to3" sampledSeconds="0.00" departed="0" arrived="0" entered="0" left="0" laneChangedFrom="0" laneChangedTo="0"/>
    </interval>
    <interval begin="500.00" end="1000.00" id="2">
        <edge id="-1to0" sampledSeconds="305.83" traveltime="0.04" density="6116.54" occupancy="3058.27" waitingTime="0.00" speed="2.75" departed="169" arrived="0" entered="0" left="169" laneChangedFrom="0" laneChangedTo="0"/>
        <edge id="0to1" sampledSeconds="6344.35" traveltime="78.14" density="12.87" occupancy="6.43" waitingTime="0.00" speed="12.62" departed="0" arrived="0" entered="68" left="94" laneChangedFrom="0" laneChangedTo="0"/>
        <edge id="0to2" sampledSeconds="6958.68" traveltime="78.78" density="14.11" occupancy="7.06" waitingTime="0.00" speed="12.52" departed="0" arrived="0" entered="101" left="75" laneChangedFrom="0" laneChangedTo="0"/>
        <edge id="1to0" sampledSeconds="0.00" departed="0" arrived="0" entered="0" left="0" laneChangedFrom="0" laneChangedTo="0"/>
        <edge id="1to2" sampledSeconds="3884.44" traveltime="94.87" density="6.56" occupancy="3.28" waitingTime="1.00" speed="12.48" departed="0" arrived="0" entered="26" left="57" laneChangedFrom="0" laneChangedTo="0"/>
        <edge id="1to3" sampledSeconds="4259.75" traveltime="62.25" density="10.73" occupancy="5.37" waitingTime="0.00" speed="12.75" departed="0" arrived="0" entered="68" left="68" laneChangedFrom="0" laneChangedTo="0"/>
        <edge id="2to0" sampledSeconds="0.00" departed="0" arrived="0" entered="0" left="0" laneChangedFrom="0" laneChangedTo="0"/>
        <edge id="2to4" sampledSeconds="8265.10" traveltime="62.33" density="20.82" occupancy="10.41" waitingTime="0.00" speed="12.74" departed="0" arrived="0" entered="132" left="132" laneChangedFrom="0" laneChangedTo="0"/>
        <edge id="3to4" sampledSeconds="0.00" departed="0" arrived="0" entered="0" left="0" laneChangedFrom="0" laneChangedTo="0"/>
        <edge id="3to5" sampledSeconds="8448.52" traveltime="123.69" density="17.07" occupancy="8.54" waitingTime="309.00" speed="8.00" departed="0" arrived="0" entered="68" left="66" laneChangedFrom="0" laneChangedTo="0"/>
        <edge id="4to2" sampledSeconds="0.00" departed="0" arrived="0" entered="0" left="0" laneChangedFrom="0" laneChangedTo="0"/>
        <edge id="4to3" sampledSeconds="0.00" departed="0" arrived="0" entered="0" left="0" laneChangedFrom="0" laneChangedTo="0"/>
        <edge id="4to5" sampledSeconds="10299.74" traveltime="77.62" density="20.82" occupancy="10.41" waitingTime="0.00" speed="12.75" departed="0" arrived="0" entered="132" left="132" laneChangedFrom="0" laneChangedTo="0"/>
        <edge id="5to-5" sampledSeconds="69.12" traveltime="0.01" density="1382.39" occupancy="691.19" waitingTime="0.00" speed="10.58" departed="0" arrived="199" entered="199" left="0" laneChangedFrom="0" laneChangedTo="0"/>
        <edge id="5to3" sampledSeconds="0.00" departed="0" arrived="0" entered="0" left="0" laneChangedFrom="0" laneChangedTo="0"/>
    </interval>
    <interval begin="1000.00" end="1673.00" id="3">
        <edge id="-1to0" sampledSeconds="293.66" traveltime="0.04" density="4363.40" occupancy="2181.70" waitingTime="0.00" speed="2.74" departed="161" arrived="0" entered="0" left="161" laneChangedFrom="0" laneChangedTo="0"/>
        <edge id="0to1" sampledSeconds="7485.94" traveltime="78.40" density="11.28" occupancy="5.64" waitingTime="0.00" speed="12.58" departed="0" arrived="0" entered="95" left="95" laneChangedFrom="0" laneChangedTo="0"/>
        <edge id="0to2" sampledSeconds="6310.96" traveltime="78.38" density="9.51" occupancy="4.75" waitingTime="0.00" speed="12.58" departed="0" arrived="0" entered="67" left="93" laneChangedFrom="0" laneChangedTo="0"/>
        <edge id="1to0" sampledSeconds="0.00" departed="0" arrived="0" entered="0" left="0" laneChangedFrom="0" laneChangedTo="0"/>
        <edge id="1to2" sampledSeconds="0.00" departed="0" arrived="0" entered="0" left="0" laneChangedFrom="0" laneChangedTo="0"/>
        <edge id="1to3" sampledSeconds="5951.28" traveltime="62.25" density="11.14" occupancy="5.57" waitingTime="0.00" speed="12.75" departed="0" arrived="0" entered="95" left="95" laneChangedFrom="0" laneChangedTo="0"/>
        <edge id="2to0" sampledSeconds="0.00" departed="0" arrived="0" entered="0" left="0" laneChangedFrom="0" laneChangedTo="0"/>
        <edge id="2to4" sampledSeconds="6494.17" traveltime="62.22" density="12.16" occupancy="6.08" waitingTime="0.00" speed="12.76" departed="0" arrived="0" entered="93" left="114" laneChangedFrom="0" laneChangedTo="0"/>
        <edge id="3to4" sampledSeconds="0.00" departed="0" arrived="0" entered="0" left="0" laneChangedFrom="0" laneChangedTo="0"/>
        <edge id="3to5" sampledSeconds="7627.44" traveltime="79.86" density="11.45" occupancy="5.73" waitingTime="35.00" speed="12.39" departed="0" arrived="0" entered="95" left="97" laneChangedFrom="0" laneChangedTo="0"/>
        <edge id="4to2" sampledSeconds="0.00" departed="0" arrived="0" entered="0" left="0" laneChangedFrom="0" laneChangedTo="0"/>
        <edge id="4to3" sampledSeconds="0.00" departed="0" arrived="0" entered="0" left="0" laneChangedFrom="0" laneChangedTo="0"/>
        <edge id="4to5" sampledSeconds="9909.25" traveltime="77.58" density="14.88" occupancy="7.44" waitingTime="0.00" speed="12.76" departed="0" arrived="0" entered="114" left="140" laneChangedFrom="0" laneChangedTo="0"/>
        <edge id="5to-5" sampledSeconds="63.03" traveltime="0.01" density="936.50" occupancy="468.25" waitingTime="0.00" speed="10.65" departed="0" arrived="237" entered="237" left="0" laneChangedFrom="0" laneChangedTo="0"/>
        <edge id="5to3" sampledSeconds="0.00" departed="0" arrived="0" entered="0" left="0" laneChangedFrom="0" laneChangedTo="0"/>
    </interval>
</meandata>
