<?xml version="1.0" encoding="UTF-8"?>

<!-- generated on 07/21/16 09:21:31 by SUMO Version 0.27.0
<?xml version="1.0" encoding="UTF-8"?>

<configuration xmlns:xsi="http://www.w3.org/2001/XMLSchema-instance" xsi:noNamespaceSchemaLocation="http://sumo.dlr.de/xsd/sumoConfiguration.xsd">

    <input>
        <net-file value="./../network/simple.net.xml"/>
        <route-files value="./../trips/trip.xml"/>
        <additional-files value="./additional_3to5__1000_20000.xml"/>
    </input>

    <output>
        <summary-output value="./../output/summary_3to5__1000_20000.xml"/>
    </output>

    <report>
        <log value="./../output/report_3to5__1000_20000.xml"/>
    </report>

</configuration>
-->

<meandata xmlns:xsi="http://www.w3.org/2001/XMLSchema-instance" xsi:noNamespaceSchemaLocation="http://sumo.dlr.de/xsd/meandata_file.xsd">
    <interval begin="0.00" end="500.00" id="1">
        <edge id="-1to0" sampledSeconds="330.29" traveltime="0.04" density="6605.70" occupancy="3302.85" waitingTime="1.00" speed="2.71" departed="179" arrived="0" entered="0" left="179" laneChangedFrom="0" laneChangedTo="0"/>
        <edge id="0to1" sampledSeconds="5351.58" traveltime="78.37" density="10.85" occupancy="5.43" waitingTime="0.00" speed="12.58" departed="0" arrived="0" entered="70" left="66" laneChangedFrom="0" laneChangedTo="0"/>
        <edge id="0to2" sampledSeconds="7635.50" traveltime="78.75" density="15.49" occupancy="7.74" waitingTime="0.00" speed="12.52" departed="0" arrived="0" entered="109" left="85" laneChangedFrom="0" laneChangedTo="0"/>
        <edge id="1to0" sampledSeconds="0.00" departed="0" arrived="0" entered="0" left="0" laneChangedFrom="0" laneChangedTo="0"/>
        <edge id="1to2" sampledSeconds="0.00" departed="0" arrived="0" entered="0" left="0" laneChangedFrom="0" laneChangedTo="0"/>
        <edge id="1to3" sampledSeconds="4002.75" traveltime="62.21" density="10.09" occupancy="5.04" waitingTime="0.00" speed="12.76" departed="0" arrived="0" entered="66" left="61" laneChangedFrom="0" laneChangedTo="0"/>
        <edge id="2to0" sampledSeconds="0.00" departed="0" arrived="0" entered="0" left="0" laneChangedFrom="0" laneChangedTo="0"/>
        <edge id="2to4" sampledSeconds="4732.84" traveltime="62.22" density="11.92" occupancy="5.96" waitingTime="0.00" speed="12.76" departed="0" arrived="0" entered="85" left="68" laneChangedFrom="0" laneChangedTo="0"/>
        <edge id="3to4" sampledSeconds="0.00" departed="0" arrived="0" entered="0" left="0" laneChangedFrom="0" laneChangedTo="0"/>
        <edge id="3to5" sampledSeconds="4913.75" traveltime="81.45" density="9.93" occupancy="4.97" waitingTime="51.00" speed="12.15" departed="0" arrived="0" entered="61" left="55" laneChangedFrom="0" laneChangedTo="0"/>
        <edge id="4to2" sampledSeconds="0.00" departed="0" arrived="0" entered="0" left="0" laneChangedFrom="0" laneChangedTo="0"/>
        <edge id="4to3" sampledSeconds="0.00" departed="0" arrived="0" entered="0" left="0" laneChangedFrom="0" laneChangedTo="0"/>
        <edge id="4to5" sampledSeconds="4291.19" traveltime="77.57" density="8.67" occupancy="4.34" waitingTime="0.00" speed="12.76" departed="0" arrived="0" entered="68" left="45" laneChangedFrom="0" laneChangedTo="0"/>
        <edge id="5to-5" sampledSeconds="34.40" traveltime="0.01" density="687.96" occupancy="343.98" waitingTime="0.00" speed="8.72" departed="0" arrived="100" entered="100" left="0" laneChangedFrom="0" laneChangedTo="0"/>
        <edge id="5to3" sampledSeconds="0.00" departed="0" arrived="0" entered="0" left="0" laneChangedFrom="0" laneChangedTo="0"/>
    </interval>
    <interval begin="500.00" end="1000.00" id="2">
        <edge id="-1to0" sampledSeconds="316.20" traveltime="0.04" density="6324.02" occupancy="3162.01" waitingTime="0.00" speed="2.72" departed="172" arrived="0" entered="0" left="172" laneChangedFrom="0" laneChangedTo="0"/>
        <edge id="0to1" sampledSeconds="2900.73" traveltime="78.29" density="5.88" occupancy="2.94" waitingTime="0.00" speed="12.60" departed="0" arrived="0" entered="36" left="34" laneChangedFrom="0" laneChangedTo="0"/>
        <edge id="0to2" sampledSeconds="10729.81" traveltime="78.55" density="21.76" occupancy="10.88" waitingTime="0.00" speed="12.55" departed="0" arrived="0" entered="135" left="139" laneChangedFrom="0" laneChangedTo="0"/>
        <edge id="1to0" sampledSeconds="0.00" departed="0" arrived="0" entered="0" left="0" laneChangedFrom="0" laneChangedTo="0"/>
        <edge id="1to2" sampledSeconds="0.00" departed="0" arrived="0" entered="0" left="0" laneChangedFrom="0" laneChangedTo="0"/>
        <edge id="1to3" sampledSeconds="2210.57" traveltime="62.13" density="5.57" occupancy="2.78" waitingTime="0.00" speed="12.78" departed="0" arrived="0" entered="34" left="37" laneChangedFrom="0" laneChangedTo="0"/>
        <edge id="2to0" sampledSeconds="0.00" departed="0" arrived="0" entered="0" left="0" laneChangedFrom="0" laneChangedTo="0"/>
        <edge id="2to4" sampledSeconds="8651.04" traveltime="62.20" density="21.80" occupancy="10.90" waitingTime="0.00" speed="12.76" departed="0" arrived="0" entered="139" left="136" laneChangedFrom="0" laneChangedTo="0"/>
        <edge id="3to4" sampledSeconds="0.00" departed="0" arrived="0" entered="0" left="0" laneChangedFrom="0" laneChangedTo="0"/>
        <edge id="3to5" sampledSeconds="3139.94" traveltime="84.76" density="6.35" occupancy="3.17" waitingTime="130.00" speed="11.68" departed="0" arrived="0" entered="37" left="40" laneChangedFrom="0" laneChangedTo="0"/>
        <edge id="4to2" sampledSeconds="0.00" departed="0" arrived="0" entered="0" left="0" laneChangedFrom="0" laneChangedTo="0"/>
        <edge id="4to3" sampledSeconds="0.00" departed="0" arrived="0" entered="0" left="0" laneChangedFrom="0" laneChangedTo="0"/>
        <edge id="4to5" sampledSeconds="10660.18" traveltime="77.57" density="21.54" occupancy="10.77" waitingTime="0.00" speed="12.76" departed="0" arrived="0" entered="136" left="134" laneChangedFrom="0" laneChangedTo="0"/>
        <edge id="5to-5" sampledSeconds="58.79" traveltime="0.01" density="1175.75" occupancy="587.87" waitingTime="0.00" speed="11.12" departed="0" arrived="174" entered="174" left="0" laneChangedFrom="0" laneChangedTo="0"/>
        <edge id="5to3" sampledSeconds="0.00" departed="0" arrived="0" entered="0" left="0" laneChangedFrom="0" laneChangedTo="0"/>
    </interval>
    <interval begin="1000.00" end="1752.00" id="3">
        <edge id="-1to0" sampledSeconds="276.16" traveltime="0.04" density="3672.35" occupancy="1836.18" waitingTime="0.00" speed="2.70" departed="149" arrived="0" entered="0" left="149" laneChangedFrom="0" laneChangedTo="0"/>
        <edge id="0to1" sampledSeconds="9149.32" traveltime="78.34" density="12.34" occupancy="6.17" waitingTime="0.00" speed="12.59" departed="0" arrived="0" entered="115" left="121" laneChangedFrom="0" laneChangedTo="0"/>
        <edge id="0to2" sampledSeconds="3667.56" traveltime="78.28" density="4.95" occupancy="2.47" waitingTime="0.00" speed="12.60" departed="0" arrived="0" entered="35" left="55" laneChangedFrom="0" laneChangedTo="0"/>
        <edge id="1to0" sampledSeconds="0.00" departed="0" arrived="0" entered="0" left="0" laneChangedFrom="0" laneChangedTo="0"/>
        <edge id="1to2" sampledSeconds="0.00" departed="0" arrived="0" entered="0" left="0" laneChangedFrom="0" laneChangedTo="0"/>
        <edge id="1to3" sampledSeconds="7622.65" traveltime="62.24" density="12.77" occupancy="6.38" waitingTime="0.00" speed="12.75" departed="0" arrived="0" entered="121" left="123" laneChangedFrom="0" laneChangedTo="0"/>
        <edge id="2to0" sampledSeconds="0.00" departed="0" arrived="0" entered="0" left="0" laneChangedFrom="0" laneChangedTo="0"/>
        <edge id="2to4" sampledSeconds="4086.25" traveltime="62.29" density="6.85" occupancy="3.42" waitingTime="0.00" speed="12.74" departed="0" arrived="0" entered="55" left="75" laneChangedFrom="0" laneChangedTo="0"/>
        <edge id="3to4" sampledSeconds="12168.60" traveltime="98.52" density="13.63" occupancy="6.81" waitingTime="213.00" speed="12.05" departed="0" arrived="0" entered="123" left="123" laneChangedFrom="0" laneChangedTo="0"/>
        <edge id="3to5" sampledSeconds="121.17" traveltime="108.80" density="0.16" occupancy="0.08" waitingTime="24.00" speed="9.10" departed="0" arrived="0" entered="0" left="3" laneChangedFrom="0" laneChangedTo="0"/>
        <edge id="4to2" sampledSeconds="0.00" departed="0" arrived="0" entered="0" left="0" laneChangedFrom="0" laneChangedTo="0"/>
        <edge id="4to3" sampledSeconds="0.00" departed="0" arrived="0" entered="0" left="0" laneChangedFrom="0" laneChangedTo="0"/>
        <edge id="4to5" sampledSeconds="16458.27" traveltime="77.89" density="22.12" occupancy="11.06" waitingTime="0.00" speed="12.70" departed="0" arrived="0" entered="198" left="223" laneChangedFrom="0" laneChangedTo="0"/>
        <edge id="5to-5" sampledSeconds="76.44" traveltime="0.01" density="1016.44" occupancy="508.22" waitingTime="0.00" speed="12.66" departed="0" arrived="226" entered="226" left="0" laneChangedFrom="0" laneChangedTo="0"/>
        <edge id="5to3" sampledSeconds="0.00" departed="0" arrived="0" entered="0" left="0" laneChangedFrom="0" laneChangedTo="0"/>
    </interval>
</meandata>
