<?xml version="1.0" encoding="UTF-8"?>

<!-- generated on 07/21/16 09:22:12 by SUMO Version 0.27.0
<?xml version="1.0" encoding="UTF-8"?>

<configuration xmlns:xsi="http://www.w3.org/2001/XMLSchema-instance" xsi:noNamespaceSchemaLocation="http://sumo.dlr.de/xsd/sumoConfiguration.xsd">

    <input>
        <net-file value="./../network/simple.net.xml"/>
        <route-files value="./../trips/trip.xml"/>
        <additional-files value="./additional_1to3__500_1000.xml"/>
    </input>

    <output>
        <summary-output value="./../output/summary_1to3__500_1000.xml"/>
    </output>

    <report>
        <log value="./../output/report_1to3__500_1000.xml"/>
    </report>

</configuration>
-->

<meandata xmlns:xsi="http://www.w3.org/2001/XMLSchema-instance" xsi:noNamespaceSchemaLocation="http://sumo.dlr.de/xsd/meandata_file.xsd">
    <interval begin="0.00" end="500.00" id="1">
        <edge id="-1to0" sampledSeconds="330.29" traveltime="0.04" density="6605.70" occupancy="3302.85" waitingTime="1.00" speed="2.71" departed="179" arrived="0" entered="0" left="179" laneChangedFrom="0" laneChangedTo="0"/>
        <edge id="0to1" sampledSeconds="5351.58" traveltime="78.37" density="10.85" occupancy="5.43" waitingTime="0.00" speed="12.58" departed="0" arrived="0" entered="70" left="66" laneChangedFrom="0" laneChangedTo="0"/>
        <edge id="0to2" sampledSeconds="7635.50" traveltime="78.75" density="15.49" occupancy="7.74" waitingTime="0.00" speed="12.52" departed="0" arrived="0" entered="109" left="85" laneChangedFrom="0" laneChangedTo="0"/>
        <edge id="1to0" sampledSeconds="0.00" departed="0" arrived="0" entered="0" left="0" laneChangedFrom="0" laneChangedTo="0"/>
        <edge id="1to2" sampledSeconds="0.00" departed="0" arrived="0" entered="0" left="0" laneChangedFrom="0" laneChangedTo="0"/>
        <edge id="1to3" sampledSeconds="4002.75" traveltime="62.21" density="10.09" occupancy="5.04" waitingTime="0.00" speed="12.76" departed="0" arrived="0" entered="66" left="61" laneChangedFrom="0" laneChangedTo="0"/>
        <edge id="2to0" sampledSeconds="0.00" departed="0" arrived="0" entered="0" left="0" laneChangedFrom="0" laneChangedTo="0"/>
        <edge id="2to4" sampledSeconds="4732.84" traveltime="62.22" density="11.92" occupancy="5.96" waitingTime="0.00" speed="12.76" departed="0" arrived="0" entered="85" left="68" laneChangedFrom="0" laneChangedTo="0"/>
        <edge id="3to4" sampledSeconds="0.00" departed="0" arrived="0" entered="0" left="0" laneChangedFrom="0" laneChangedTo="0"/>
        <edge id="3to5" sampledSeconds="4913.75" traveltime="81.45" density="9.93" occupancy="4.97" waitingTime="51.00" speed="12.15" departed="0" arrived="0" entered="61" left="55" laneChangedFrom="0" laneChangedTo="0"/>
        <edge id="4to2" sampledSeconds="0.00" departed="0" arrived="0" entered="0" left="0" laneChangedFrom="0" laneChangedTo="0"/>
        <edge id="4to3" sampledSeconds="0.00" departed="0" arrived="0" entered="0" left="0" laneChangedFrom="0" laneChangedTo="0"/>
        <edge id="4to5" sampledSeconds="4291.19" traveltime="77.57" density="8.67" occupancy="4.34" waitingTime="0.00" speed="12.76" departed="0" arrived="0" entered="68" left="45" laneChangedFrom="0" laneChangedTo="0"/>
        <edge id="5to-5" sampledSeconds="34.40" traveltime="0.01" density="687.96" occupancy="343.98" waitingTime="0.00" speed="8.72" departed="0" arrived="100" entered="100" left="0" laneChangedFrom="0" laneChangedTo="0"/>
        <edge id="5to3" sampledSeconds="0.00" departed="0" arrived="0" entered="0" left="0" laneChangedFrom="0" laneChangedTo="0"/>
    </interval>
    <interval begin="500.00" end="1000.00" id="2">
        <edge id="-1to0" sampledSeconds="309.95" traveltime="0.04" density="6199.04" occupancy="3099.52" waitingTime="0.00" speed="2.73" departed="169" arrived="0" entered="0" left="169" laneChangedFrom="0" laneChangedTo="0"/>
        <edge id="0to1" sampledSeconds="9470.28" traveltime="78.44" density="19.21" occupancy="9.60" waitingTime="0.00" speed="12.57" departed="0" arrived="0" entered="131" left="109" laneChangedFrom="0" laneChangedTo="0"/>
        <edge id="0to2" sampledSeconds="3897.23" traveltime="78.29" density="7.90" occupancy="3.95" waitingTime="0.00" speed="12.60" departed="0" arrived="0" entered="37" left="61" laneChangedFrom="0" laneChangedTo="0"/>
        <edge id="1to0" sampledSeconds="0.00" departed="0" arrived="0" entered="0" left="0" laneChangedFrom="0" laneChangedTo="0"/>
        <edge id="1to2" sampledSeconds="8872.85" traveltime="94.41" density="14.99" occupancy="7.49" waitingTime="23.00" speed="12.54" departed="0" arrived="0" entered="109" left="78" laneChangedFrom="0" laneChangedTo="0"/>
        <edge id="1to3" sampledSeconds="129.14" traveltime="62.29" density="0.33" occupancy="0.16" waitingTime="0.00" speed="12.74" departed="0" arrived="0" entered="0" left="5" laneChangedFrom="0" laneChangedTo="0"/>
        <edge id="2to0" sampledSeconds="0.00" departed="0" arrived="0" entered="0" left="0" laneChangedFrom="0" laneChangedTo="0"/>
        <edge id="2to4" sampledSeconds="8613.06" traveltime="62.38" density="21.70" occupancy="10.85" waitingTime="0.00" speed="12.73" departed="0" arrived="0" entered="138" left="135" laneChangedFrom="0" laneChangedTo="0"/>
        <edge id="3to4" sampledSeconds="0.00" departed="0" arrived="0" entered="0" left="0" laneChangedFrom="0" laneChangedTo="0"/>
        <edge id="3to5" sampledSeconds="540.99" traveltime="90.13" density="1.09" occupancy="0.55" waitingTime="41.00" speed="10.98" departed="0" arrived="0" entered="5" left="11" laneChangedFrom="0" laneChangedTo="0"/>
        <edge id="4to2" sampledSeconds="0.00" departed="0" arrived="0" entered="0" left="0" laneChangedFrom="0" laneChangedTo="0"/>
        <edge id="4to3" sampledSeconds="0.00" departed="0" arrived="0" entered="0" left="0" laneChangedFrom="0" laneChangedTo="0"/>
        <edge id="4to5" sampledSeconds="10456.29" traveltime="77.56" density="21.13" occupancy="10.57" waitingTime="0.00" speed="12.76" departed="0" arrived="0" entered="134" left="132" laneChangedFrom="0" laneChangedTo="0"/>
        <edge id="5to-5" sampledSeconds="46.12" traveltime="0.01" density="922.35" occupancy="461.17" waitingTime="0.00" speed="12.10" departed="0" arrived="142" entered="142" left="0" laneChangedFrom="0" laneChangedTo="0"/>
        <edge id="5to3" sampledSeconds="0.00" departed="0" arrived="0" entered="0" left="0" laneChangedFrom="0" laneChangedTo="0"/>
    </interval>
    <interval begin="1000.00" end="1668.00" id="3">
        <edge id="-1to0" sampledSeconds="274.30" traveltime="0.04" density="4106.30" occupancy="2053.15" waitingTime="0.00" speed="2.77" departed="152" arrived="0" entered="0" left="152" laneChangedFrom="0" laneChangedTo="0"/>
        <edge id="0to1" sampledSeconds="6125.41" traveltime="78.20" density="9.30" occupancy="4.65" waitingTime="0.00" speed="12.61" departed="0" arrived="0" entered="65" left="91" laneChangedFrom="0" laneChangedTo="0"/>
        <edge id="0to2" sampledSeconds="6951.37" traveltime="78.59" density="10.55" occupancy="5.28" waitingTime="0.00" speed="12.55" departed="0" arrived="0" entered="88" left="88" laneChangedFrom="0" laneChangedTo="0"/>
        <edge id="1to0" sampledSeconds="0.00" departed="0" arrived="0" entered="0" left="0" laneChangedFrom="0" laneChangedTo="0"/>
        <edge id="1to2" sampledSeconds="3967.77" traveltime="95.41" density="5.02" occupancy="2.51" waitingTime="9.00" speed="12.41" departed="0" arrived="0" entered="26" left="57" laneChangedFrom="0" laneChangedTo="0"/>
        <edge id="1to3" sampledSeconds="4069.70" traveltime="62.22" density="7.67" occupancy="3.84" waitingTime="0.00" speed="12.76" departed="0" arrived="0" entered="65" left="65" laneChangedFrom="0" laneChangedTo="0"/>
        <edge id="2to0" sampledSeconds="0.00" departed="0" arrived="0" entered="0" left="0" laneChangedFrom="0" laneChangedTo="0"/>
        <edge id="2to4" sampledSeconds="9801.43" traveltime="62.36" density="18.48" occupancy="9.24" waitingTime="0.00" speed="12.73" departed="0" arrived="0" entered="146" left="166" laneChangedFrom="0" laneChangedTo="0"/>
        <edge id="3to4" sampledSeconds="0.00" departed="0" arrived="0" entered="0" left="0" laneChangedFrom="0" laneChangedTo="0"/>
        <edge id="3to5" sampledSeconds="8226.10" traveltime="125.93" density="12.44" occupancy="6.22" waitingTime="363.00" speed="7.86" departed="0" arrived="0" entered="65" left="65" laneChangedFrom="0" laneChangedTo="0"/>
        <edge id="4to2" sampledSeconds="0.00" departed="0" arrived="0" entered="0" left="0" laneChangedFrom="0" laneChangedTo="0"/>
        <edge id="4to3" sampledSeconds="0.00" departed="0" arrived="0" entered="0" left="0" laneChangedFrom="0" laneChangedTo="0"/>
        <edge id="4to5" sampledSeconds="14018.34" traveltime="77.57" density="21.21" occupancy="10.60" waitingTime="0.00" speed="12.76" departed="0" arrived="0" entered="167" left="192" laneChangedFrom="0" laneChangedTo="0"/>
        <edge id="5to-5" sampledSeconds="86.27" traveltime="0.01" density="1291.41" occupancy="645.70" waitingTime="0.00" speed="11.06" departed="0" arrived="258" entered="258" left="0" laneChangedFrom="0" laneChangedTo="0"/>
        <edge id="5to3" sampledSeconds="0.00" departed="0" arrived="0" entered="0" left="0" laneChangedFrom="0" laneChangedTo="0"/>
    </interval>
</meandata>
