<?xml version="1.0" encoding="UTF-8"?>

<!-- generated on Tue Jul 26 13:52:52 2016 by SUMO Version 0.27.0
<?xml version="1.0" encoding="UTF-8"?>

<configuration xmlns:xsi="http://www.w3.org/2001/XMLSchema-instance" xsi:noNamespaceSchemaLocation="http://sumo.dlr.de/xsd/sumoConfiguration.xsd">

    <input>
        <net-file value="./../network/simple.net.xml"/>
        <route-files value="./../trips/trip.xml"/>
        <additional-files value="./additional_2to4__500_1000.xml"/>
    </input>

    <output>
        <summary-output value="./../output/summary_2to4__500_1000.xml"/>
    </output>

    <report>
        <log value="./../output/report_2to4__500_1000.xml"/>
    </report>

</configuration>
-->

<meandata xmlns:xsi="http://www.w3.org/2001/XMLSchema-instance" xsi:noNamespaceSchemaLocation="http://sumo.dlr.de/xsd/meandata_file.xsd">
    <interval begin="0.00" end="500.00" id="1">
        <edge id="-1to0" sampledSeconds="330.29" traveltime="0.04" density="6605.70" occupancy="3302.85" waitingTime="1.00" speed="2.71" departed="179" arrived="0" entered="0" left="179" laneChangedFrom="0" laneChangedTo="0"/>
        <edge id="0to1" sampledSeconds="5351.58" traveltime="78.37" density="10.85" occupancy="5.43" waitingTime="0.00" speed="12.58" departed="0" arrived="0" entered="70" left="66" laneChangedFrom="0" laneChangedTo="0"/>
        <edge id="0to2" sampledSeconds="7635.50" traveltime="78.75" density="15.49" occupancy="7.74" waitingTime="0.00" speed="12.52" departed="0" arrived="0" entered="109" left="85" laneChangedFrom="0" laneChangedTo="0"/>
        <edge id="1to0" sampledSeconds="0.00" departed="0" arrived="0" entered="0" left="0" laneChangedFrom="0" laneChangedTo="0"/>
        <edge id="1to2" sampledSeconds="0.00" departed="0" arrived="0" entered="0" left="0" laneChangedFrom="0" laneChangedTo="0"/>
        <edge id="1to3" sampledSeconds="4002.75" traveltime="62.21" density="10.09" occupancy="5.04" waitingTime="0.00" speed="12.76" departed="0" arrived="0" entered="66" left="61" laneChangedFrom="0" laneChangedTo="0"/>
        <edge id="2to0" sampledSeconds="0.00" departed="0" arrived="0" entered="0" left="0" laneChangedFrom="0" laneChangedTo="0"/>
        <edge id="2to4" sampledSeconds="4732.84" traveltime="62.22" density="11.92" occupancy="5.96" waitingTime="0.00" speed="12.76" departed="0" arrived="0" entered="85" left="68" laneChangedFrom="0" laneChangedTo="0"/>
        <edge id="3to4" sampledSeconds="0.00" departed="0" arrived="0" entered="0" left="0" laneChangedFrom="0" laneChangedTo="0"/>
        <edge id="3to5" sampledSeconds="4913.75" traveltime="81.45" density="9.93" occupancy="4.97" waitingTime="51.00" speed="12.15" departed="0" arrived="0" entered="61" left="55" laneChangedFrom="0" laneChangedTo="0"/>
        <edge id="4to2" sampledSeconds="0.00" departed="0" arrived="0" entered="0" left="0" laneChangedFrom="0" laneChangedTo="0"/>
        <edge id="4to3" sampledSeconds="0.00" departed="0" arrived="0" entered="0" left="0" laneChangedFrom="0" laneChangedTo="0"/>
        <edge id="4to5" sampledSeconds="4291.19" traveltime="77.57" density="8.67" occupancy="4.34" waitingTime="0.00" speed="12.76" departed="0" arrived="0" entered="68" left="45" laneChangedFrom="0" laneChangedTo="0"/>
        <edge id="5to-5" sampledSeconds="34.40" traveltime="0.01" density="687.96" occupancy="343.98" waitingTime="0.00" speed="8.72" departed="0" arrived="100" entered="100" left="0" laneChangedFrom="0" laneChangedTo="0"/>
        <edge id="5to3" sampledSeconds="0.00" departed="0" arrived="0" entered="0" left="0" laneChangedFrom="0" laneChangedTo="0"/>
    </interval>
    <interval begin="500.00" end="1000.00" id="2">
        <edge id="-1to0" sampledSeconds="307.09" traveltime="0.04" density="6141.72" occupancy="3070.86" waitingTime="2.00" speed="2.72" departed="168" arrived="0" entered="0" left="167" laneChangedFrom="0" laneChangedTo="0"/>
        <edge id="0to1" sampledSeconds="9892.32" traveltime="77.81" density="20.06" occupancy="10.03" waitingTime="0.00" speed="12.67" departed="0" arrived="0" entered="137" left="116" laneChangedFrom="0" laneChangedTo="0"/>
        <edge id="0to2" sampledSeconds="12696.13" traveltime="79.94" density="25.75" occupancy="12.87" waitingTime="0.00" speed="12.34" departed="0" arrived="0" entered="159" left="156" laneChangedFrom="0" laneChangedTo="0"/>
        <edge id="1to0" sampledSeconds="0.00" departed="0" arrived="0" entered="0" left="0" laneChangedFrom="0" laneChangedTo="0"/>
        <edge id="1to2" sampledSeconds="0.00" departed="0" arrived="0" entered="0" left="0" laneChangedFrom="0" laneChangedTo="0"/>
        <edge id="1to3" sampledSeconds="6709.14" traveltime="62.22" density="16.90" occupancy="8.45" waitingTime="0.00" speed="12.76" departed="0" arrived="0" entered="116" left="100" laneChangedFrom="0" laneChangedTo="0"/>
        <edge id="2to0" sampledSeconds="11406.59" traveltime="79.43" density="23.13" occupancy="11.57" waitingTime="1.00" speed="12.42" departed="0" arrived="0" entered="156" left="129" laneChangedFrom="0" laneChangedTo="0"/>
        <edge id="2to4" sampledSeconds="588.40" traveltime="62.15" density="1.48" occupancy="0.74" waitingTime="0.00" speed="12.77" departed="0" arrived="0" entered="0" left="17" laneChangedFrom="0" laneChangedTo="0"/>
        <edge id="3to4" sampledSeconds="0.00" departed="0" arrived="0" entered="0" left="0" laneChangedFrom="0" laneChangedTo="0"/>
        <edge id="3to5" sampledSeconds="7055.95" traveltime="79.76" density="14.26" occupancy="7.13" waitingTime="41.00" speed="12.41" departed="0" arrived="0" entered="99" left="82" laneChangedFrom="0" laneChangedTo="0"/>
        <edge id="4to2" sampledSeconds="0.00" departed="0" arrived="0" entered="0" left="0" laneChangedFrom="0" laneChangedTo="0"/>
        <edge id="4to3" sampledSeconds="0.00" departed="0" arrived="0" entered="0" left="0" laneChangedFrom="0" laneChangedTo="0"/>
        <edge id="4to5" sampledSeconds="2335.97" traveltime="77.58" density="4.72" occupancy="2.36" waitingTime="0.00" speed="12.76" departed="0" arrived="0" entered="17" left="40" laneChangedFrom="0" laneChangedTo="0"/>
        <edge id="5to-5" sampledSeconds="33.83" traveltime="0.01" density="676.59" occupancy="338.30" waitingTime="0.00" speed="9.40" departed="0" arrived="122" entered="122" left="0" laneChangedFrom="0" laneChangedTo="0"/>
        <edge id="5to3" sampledSeconds="0.00" departed="0" arrived="0" entered="0" left="0" laneChangedFrom="0" laneChangedTo="0"/>
    </interval>
    <interval begin="1000.00" end="1500.00" id="3">
        <edge id="-1to0" sampledSeconds="279.01" traveltime="0.04" density="5580.22" occupancy="2790.11" waitingTime="0.00" speed="2.76" departed="153" arrived="0" entered="0" left="154" laneChangedFrom="0" laneChangedTo="0"/>
        <edge id="0to1" sampledSeconds="5833.91" traveltime="77.83" density="11.83" occupancy="5.92" waitingTime="0.00" speed="12.67" departed="0" arrived="0" entered="62" left="87" laneChangedFrom="0" laneChangedTo="0"/>
        <edge id="0to2" sampledSeconds="12403.47" traveltime="78.77" density="25.15" occupancy="12.58" waitingTime="0.00" speed="12.52" departed="0" arrived="0" entered="146" left="161" laneChangedFrom="0" laneChangedTo="0"/>
        <edge id="1to0" sampledSeconds="0.00" departed="0" arrived="0" entered="0" left="0" laneChangedFrom="0" laneChangedTo="0"/>
        <edge id="1to2" sampledSeconds="0.00" departed="0" arrived="0" entered="0" left="0" laneChangedFrom="0" laneChangedTo="0"/>
        <edge id="1to3" sampledSeconds="6133.17" traveltime="62.25" density="15.45" occupancy="7.73" waitingTime="0.00" speed="12.75" departed="0" arrived="0" entered="87" left="108" laneChangedFrom="0" laneChangedTo="0"/>
        <edge id="2to0" sampledSeconds="3228.16" traveltime="80.05" density="6.55" occupancy="3.27" waitingTime="0.00" speed="12.32" departed="0" arrived="0" entered="27" left="54" laneChangedFrom="0" laneChangedTo="0"/>
        <edge id="2to4" sampledSeconds="7718.67" traveltime="62.20" density="19.45" occupancy="9.72" waitingTime="0.00" speed="12.76" departed="0" arrived="0" entered="134" left="113" laneChangedFrom="0" laneChangedTo="0"/>
        <edge id="3to4" sampledSeconds="0.00" departed="0" arrived="0" entered="0" left="0" laneChangedFrom="0" laneChangedTo="0"/>
        <edge id="3to5" sampledSeconds="18240.34" traveltime="158.52" density="36.86" occupancy="18.43" waitingTime="1582.00" speed="6.24" departed="0" arrived="0" entered="109" left="94" laneChangedFrom="0" laneChangedTo="0"/>
        <edge id="4to2" sampledSeconds="0.00" departed="0" arrived="0" entered="0" left="0" laneChangedFrom="0" laneChangedTo="0"/>
        <edge id="4to3" sampledSeconds="0.00" departed="0" arrived="0" entered="0" left="0" laneChangedFrom="0" laneChangedTo="0"/>
        <edge id="4to5" sampledSeconds="7780.05" traveltime="77.54" density="15.72" occupancy="7.86" waitingTime="0.00" speed="12.76" departed="0" arrived="0" entered="113" left="87" laneChangedFrom="0" laneChangedTo="0"/>
        <edge id="5to-5" sampledSeconds="53.97" traveltime="0.01" density="1079.48" occupancy="539.74" waitingTime="0.00" speed="9.70" departed="0" arrived="181" entered="181" left="0" laneChangedFrom="0" laneChangedTo="0"/>
        <edge id="5to3" sampledSeconds="0.00" departed="0" arrived="0" entered="0" left="0" laneChangedFrom="0" laneChangedTo="0"/>
    </interval>
    <interval begin="1500.00" end="1739.00" id="4">
        <edge id="-1to0" sampledSeconds="0.00" departed="0" arrived="0" entered="0" left="0" laneChangedFrom="0" laneChangedTo="0"/>
        <edge id="0to1" sampledSeconds="0.00" departed="0" arrived="0" entered="0" left="0" laneChangedFrom="0" laneChangedTo="0"/>
        <edge id="0to2" sampledSeconds="221.24" traveltime="77.43" density="0.94" occupancy="0.47" waitingTime="0.00" speed="12.74" departed="0" arrived="0" entered="0" left="12" laneChangedFrom="0" laneChangedTo="0"/>
        <edge id="1to0" sampledSeconds="0.00" departed="0" arrived="0" entered="0" left="0" laneChangedFrom="0" laneChangedTo="0"/>
        <edge id="1to2" sampledSeconds="0.00" departed="0" arrived="0" entered="0" left="0" laneChangedFrom="0" laneChangedTo="0"/>
        <edge id="1to3" sampledSeconds="0.00" departed="0" arrived="0" entered="0" left="0" laneChangedFrom="0" laneChangedTo="0"/>
        <edge id="2to0" sampledSeconds="0.00" departed="0" arrived="0" entered="0" left="0" laneChangedFrom="0" laneChangedTo="0"/>
        <edge id="2to4" sampledSeconds="1418.94" traveltime="62.16" density="7.48" occupancy="3.74" waitingTime="0.00" speed="12.77" departed="0" arrived="0" entered="12" left="33" laneChangedFrom="0" laneChangedTo="0"/>
        <edge id="3to4" sampledSeconds="0.00" departed="0" arrived="0" entered="0" left="0" laneChangedFrom="0" laneChangedTo="0"/>
        <edge id="3to5" sampledSeconds="6534.44" traveltime="1006.97" density="27.63" occupancy="13.81" waitingTime="1159.00" speed="0.98" departed="0" arrived="0" entered="0" left="38" laneChangedFrom="0" laneChangedTo="0"/>
        <edge id="4to2" sampledSeconds="0.00" departed="0" arrived="0" entered="0" left="0" laneChangedFrom="0" laneChangedTo="0"/>
        <edge id="4to3" sampledSeconds="0.00" departed="0" arrived="0" entered="0" left="0" laneChangedFrom="0" laneChangedTo="0"/>
        <edge id="4to5" sampledSeconds="3597.90" traveltime="77.54" density="15.21" occupancy="7.61" waitingTime="0.00" speed="12.76" departed="0" arrived="0" entered="33" left="59" laneChangedFrom="0" laneChangedTo="0"/>
        <edge id="5to-5" sampledSeconds="32.61" traveltime="0.01" density="1364.64" occupancy="682.32" waitingTime="0.00" speed="10.13" departed="0" arrived="97" entered="97" left="0" laneChangedFrom="0" laneChangedTo="0"/>
        <edge id="5to3" sampledSeconds="0.00" departed="0" arrived="0" entered="0" left="0" laneChangedFrom="0" laneChangedTo="0"/>
    </interval>
</meandata>
