<?xml version="1.0" encoding="UTF-8"?>

<!-- generated on Fri Jul 22 19:06:44 2016 by SUMO Version 0.27.0
<?xml version="1.0" encoding="UTF-8"?>

<configuration xmlns:xsi="http://www.w3.org/2001/XMLSchema-instance" xsi:noNamespaceSchemaLocation="http://sumo.dlr.de/xsd/sumoConfiguration.xsd">

    <input>
        <net-file value="./../network/simple.net.xml"/>
        <route-files value="./../trips/trip.xml"/>
        <additional-files value="./additional_0to2__500_1000.xml"/>
    </input>

    <output>
        <summary-output value="./../output/summary_0to2__500_1000.xml"/>
    </output>

    <report>
        <log value="./../output/report_0to2__500_1000.xml"/>
    </report>

</configuration>
-->

<meandata xmlns:xsi="http://www.w3.org/2001/XMLSchema-instance" xsi:noNamespaceSchemaLocation="http://sumo.dlr.de/xsd/meandata_file.xsd">
    <interval begin="0.00" end="500.00" id="1">
        <edge id="-1to0" sampledSeconds="330.29" traveltime="0.04" density="6605.70" occupancy="3302.85" waitingTime="1.00" speed="2.71" departed="179" arrived="0" entered="0" left="179" laneChangedFrom="0" laneChangedTo="0"/>
        <edge id="0to1" sampledSeconds="5351.58" traveltime="78.37" density="10.85" occupancy="5.43" waitingTime="0.00" speed="12.58" departed="0" arrived="0" entered="70" left="66" laneChangedFrom="0" laneChangedTo="0"/>
        <edge id="0to2" sampledSeconds="7635.50" traveltime="78.75" density="15.49" occupancy="7.74" waitingTime="0.00" speed="12.52" departed="0" arrived="0" entered="109" left="85" laneChangedFrom="0" laneChangedTo="0"/>
        <edge id="1to0" sampledSeconds="0.00" departed="0" arrived="0" entered="0" left="0" laneChangedFrom="0" laneChangedTo="0"/>
        <edge id="1to2" sampledSeconds="0.00" departed="0" arrived="0" entered="0" left="0" laneChangedFrom="0" laneChangedTo="0"/>
        <edge id="1to3" sampledSeconds="4002.75" traveltime="62.21" density="10.09" occupancy="5.04" waitingTime="0.00" speed="12.76" departed="0" arrived="0" entered="66" left="61" laneChangedFrom="0" laneChangedTo="0"/>
        <edge id="2to0" sampledSeconds="0.00" departed="0" arrived="0" entered="0" left="0" laneChangedFrom="0" laneChangedTo="0"/>
        <edge id="2to4" sampledSeconds="4732.84" traveltime="62.22" density="11.92" occupancy="5.96" waitingTime="0.00" speed="12.76" departed="0" arrived="0" entered="85" left="68" laneChangedFrom="0" laneChangedTo="0"/>
        <edge id="3to4" sampledSeconds="0.00" departed="0" arrived="0" entered="0" left="0" laneChangedFrom="0" laneChangedTo="0"/>
        <edge id="3to5" sampledSeconds="4913.75" traveltime="81.45" density="9.93" occupancy="4.97" waitingTime="51.00" speed="12.15" departed="0" arrived="0" entered="61" left="55" laneChangedFrom="0" laneChangedTo="0"/>
        <edge id="4to2" sampledSeconds="0.00" departed="0" arrived="0" entered="0" left="0" laneChangedFrom="0" laneChangedTo="0"/>
        <edge id="4to3" sampledSeconds="0.00" departed="0" arrived="0" entered="0" left="0" laneChangedFrom="0" laneChangedTo="0"/>
        <edge id="4to5" sampledSeconds="4291.19" traveltime="77.57" density="8.67" occupancy="4.34" waitingTime="0.00" speed="12.76" departed="0" arrived="0" entered="68" left="45" laneChangedFrom="0" laneChangedTo="0"/>
        <edge id="5to-5" sampledSeconds="34.40" traveltime="0.01" density="687.96" occupancy="343.98" waitingTime="0.00" speed="8.72" departed="0" arrived="100" entered="100" left="0" laneChangedFrom="0" laneChangedTo="0"/>
        <edge id="5to3" sampledSeconds="0.00" departed="0" arrived="0" entered="0" left="0" laneChangedFrom="0" laneChangedTo="0"/>
    </interval>
    <interval begin="500.00" end="1000.00" id="2">
        <edge id="-1to0" sampledSeconds="432.77" traveltime="0.05" density="8655.36" occupancy="4327.68" waitingTime="123.00" speed="1.91" departed="166" arrived="0" entered="0" left="165" laneChangedFrom="0" laneChangedTo="0"/>
        <edge id="0to1" sampledSeconds="12089.88" traveltime="78.38" density="24.52" occupancy="12.26" waitingTime="0.00" speed="12.58" departed="0" arrived="0" entered="164" left="143" laneChangedFrom="0" laneChangedTo="0"/>
        <edge id="0to2" sampledSeconds="973.61" traveltime="77.34" density="1.97" occupancy="0.99" waitingTime="0.00" speed="12.75" departed="0" arrived="0" entered="0" left="24" laneChangedFrom="0" laneChangedTo="0"/>
        <edge id="1to0" sampledSeconds="0.00" departed="0" arrived="0" entered="0" left="0" laneChangedFrom="0" laneChangedTo="0"/>
        <edge id="1to2" sampledSeconds="0.00" departed="0" arrived="0" entered="0" left="0" laneChangedFrom="0" laneChangedTo="0"/>
        <edge id="1to3" sampledSeconds="8407.91" traveltime="62.19" density="21.18" occupancy="10.59" waitingTime="0.00" speed="12.76" departed="0" arrived="0" entered="143" left="127" laneChangedFrom="0" laneChangedTo="0"/>
        <edge id="2to0" sampledSeconds="0.00" departed="0" arrived="0" entered="0" left="0" laneChangedFrom="0" laneChangedTo="0"/>
        <edge id="2to4" sampledSeconds="2089.40" traveltime="62.15" density="5.26" occupancy="2.63" waitingTime="0.00" speed="12.77" departed="0" arrived="0" entered="24" left="41" laneChangedFrom="0" laneChangedTo="0"/>
        <edge id="3to4" sampledSeconds="0.00" departed="0" arrived="0" entered="0" left="0" laneChangedFrom="0" laneChangedTo="0"/>
        <edge id="3to5" sampledSeconds="9207.62" traveltime="79.86" density="18.61" occupancy="9.30" waitingTime="76.00" speed="12.39" departed="0" arrived="0" entered="127" left="106" laneChangedFrom="0" laneChangedTo="0"/>
        <edge id="4to2" sampledSeconds="0.00" departed="0" arrived="0" entered="0" left="0" laneChangedFrom="0" laneChangedTo="0"/>
        <edge id="4to3" sampledSeconds="0.00" departed="0" arrived="0" entered="0" left="0" laneChangedFrom="0" laneChangedTo="0"/>
        <edge id="4to5" sampledSeconds="4206.91" traveltime="77.57" density="8.50" occupancy="4.25" waitingTime="0.00" speed="12.76" departed="0" arrived="0" entered="41" left="64" laneChangedFrom="0" laneChangedTo="0"/>
        <edge id="5to-5" sampledSeconds="47.98" traveltime="0.01" density="959.54" occupancy="479.77" waitingTime="0.00" speed="9.76" departed="0" arrived="170" entered="170" left="0" laneChangedFrom="0" laneChangedTo="0"/>
        <edge id="5to3" sampledSeconds="0.00" departed="0" arrived="0" entered="0" left="0" laneChangedFrom="0" laneChangedTo="0"/>
    </interval>
    <interval begin="1000.00" end="1665.00" id="3">
        <edge id="-1to0" sampledSeconds="283.37" traveltime="0.04" density="4261.19" occupancy="2130.60" waitingTime="1.00" speed="2.75" departed="155" arrived="0" entered="0" left="156" laneChangedFrom="0" laneChangedTo="0"/>
        <edge id="0to1" sampledSeconds="3817.64" traveltime="78.17" density="5.82" occupancy="2.91" waitingTime="0.00" speed="12.61" departed="0" arrived="0" entered="36" left="61" laneChangedFrom="0" laneChangedTo="0"/>
        <edge id="0to2" sampledSeconds="9565.25" traveltime="78.65" density="14.59" occupancy="7.29" waitingTime="0.00" speed="12.54" departed="0" arrived="0" entered="121" left="121" laneChangedFrom="0" laneChangedTo="0"/>
        <edge id="1to0" sampledSeconds="0.00" departed="0" arrived="0" entered="0" left="0" laneChangedFrom="0" laneChangedTo="0"/>
        <edge id="1to2" sampledSeconds="0.00" departed="0" arrived="0" entered="0" left="0" laneChangedFrom="0" laneChangedTo="0"/>
        <edge id="1to3" sampledSeconds="4488.41" traveltime="62.20" density="8.50" occupancy="4.25" waitingTime="0.00" speed="12.76" departed="0" arrived="0" entered="61" left="82" laneChangedFrom="0" laneChangedTo="0"/>
        <edge id="2to0" sampledSeconds="0.00" departed="0" arrived="0" entered="0" left="0" laneChangedFrom="0" laneChangedTo="0"/>
        <edge id="2to4" sampledSeconds="7578.77" traveltime="62.24" density="14.36" occupancy="7.18" waitingTime="0.00" speed="12.75" departed="0" arrived="0" entered="121" left="121" laneChangedFrom="0" laneChangedTo="0"/>
        <edge id="3to4" sampledSeconds="0.00" departed="0" arrived="0" entered="0" left="0" laneChangedFrom="0" laneChangedTo="0"/>
        <edge id="3to5" sampledSeconds="7750.04" traveltime="80.96" density="11.78" occupancy="5.89" waitingTime="101.00" speed="12.22" departed="0" arrived="0" entered="82" left="109" laneChangedFrom="0" laneChangedTo="0"/>
        <edge id="4to2" sampledSeconds="0.00" departed="0" arrived="0" entered="0" left="0" laneChangedFrom="0" laneChangedTo="0"/>
        <edge id="4to3" sampledSeconds="0.00" departed="0" arrived="0" entered="0" left="0" laneChangedFrom="0" laneChangedTo="0"/>
        <edge id="4to5" sampledSeconds="9431.98" traveltime="77.56" density="14.33" occupancy="7.17" waitingTime="0.00" speed="12.76" departed="0" arrived="0" entered="121" left="121" laneChangedFrom="0" laneChangedTo="0"/>
        <edge id="5to-5" sampledSeconds="69.75" traveltime="0.01" density="1048.86" occupancy="524.43" waitingTime="0.00" speed="10.31" departed="0" arrived="230" entered="230" left="0" laneChangedFrom="0" laneChangedTo="0"/>
        <edge id="5to3" sampledSeconds="0.00" departed="0" arrived="0" entered="0" left="0" laneChangedFrom="0" laneChangedTo="0"/>
    </interval>
</meandata>
