<?xml version="1.0" encoding="UTF-8"?>

<!-- generated on 09/07/16 20:09:51 by SUMO Version 0.27.1
<?xml version="1.0" encoding="UTF-8"?>

<configuration xmlns:xsi="http://www.w3.org/2001/XMLSchema-instance" xsi:noNamespaceSchemaLocation="http://sumo.dlr.de/xsd/sumoConfiguration.xsd">

    <input>
        <net-file value="./../network/simple.net.xml"/>
        <route-files value="./../trips/trip.xml"/>
        <additional-files value="./additional_1to2__0_500.xml"/>
    </input>

    <output>
        <summary-output value="./../output/summary_1to2__0_500.xml"/>
    </output>

    <report>
        <log value="./../output/report_1to2__0_500.xml"/>
    </report>

</configuration>
-->

<meandata xmlns:xsi="http://www.w3.org/2001/XMLSchema-instance" xsi:noNamespaceSchemaLocation="http://sumo.dlr.de/xsd/meandata_file.xsd">
    <interval begin="0.00" end="500.00" id="1">
        <edge id="-1to0" sampledSeconds="330.29" traveltime="0.04" density="6605.70" occupancy="3302.85" waitingTime="1.00" speed="2.71" departed="179" arrived="0" entered="0" left="179" laneChangedFrom="0" laneChangedTo="0"/>
        <edge id="0to1" sampledSeconds="5351.58" traveltime="78.37" density="10.85" occupancy="5.43" waitingTime="0.00" speed="12.58" departed="0" arrived="0" entered="70" left="66" laneChangedFrom="0" laneChangedTo="0"/>
        <edge id="0to2" sampledSeconds="7635.50" traveltime="78.75" density="15.49" occupancy="7.74" waitingTime="0.00" speed="12.52" departed="0" arrived="0" entered="109" left="85" laneChangedFrom="0" laneChangedTo="0"/>
        <edge id="1to0" sampledSeconds="0.00" departed="0" arrived="0" entered="0" left="0" laneChangedFrom="0" laneChangedTo="0"/>
        <edge id="1to2" sampledSeconds="0.00" departed="0" arrived="0" entered="0" left="0" laneChangedFrom="0" laneChangedTo="0"/>
        <edge id="1to3" sampledSeconds="4002.75" traveltime="62.21" density="10.09" occupancy="5.04" waitingTime="0.00" speed="12.76" departed="0" arrived="0" entered="66" left="61" laneChangedFrom="0" laneChangedTo="0"/>
        <edge id="2to0" sampledSeconds="0.00" departed="0" arrived="0" entered="0" left="0" laneChangedFrom="0" laneChangedTo="0"/>
        <edge id="2to4" sampledSeconds="4732.84" traveltime="62.22" density="11.92" occupancy="5.96" waitingTime="0.00" speed="12.76" departed="0" arrived="0" entered="85" left="68" laneChangedFrom="0" laneChangedTo="0"/>
        <edge id="3to4" sampledSeconds="0.00" departed="0" arrived="0" entered="0" left="0" laneChangedFrom="0" laneChangedTo="0"/>
        <edge id="3to5" sampledSeconds="4913.75" traveltime="81.45" density="9.93" occupancy="4.97" waitingTime="51.00" speed="12.15" departed="0" arrived="0" entered="61" left="55" laneChangedFrom="0" laneChangedTo="0"/>
        <edge id="4to2" sampledSeconds="0.00" departed="0" arrived="0" entered="0" left="0" laneChangedFrom="0" laneChangedTo="0"/>
        <edge id="4to3" sampledSeconds="0.00" departed="0" arrived="0" entered="0" left="0" laneChangedFrom="0" laneChangedTo="0"/>
        <edge id="4to5" sampledSeconds="4291.19" traveltime="77.57" density="8.67" occupancy="4.34" waitingTime="0.00" speed="12.76" departed="0" arrived="0" entered="68" left="45" laneChangedFrom="0" laneChangedTo="0"/>
        <edge id="5to-5" sampledSeconds="34.40" traveltime="0.01" density="687.96" occupancy="343.98" waitingTime="0.00" speed="8.72" departed="0" arrived="100" entered="100" left="0" laneChangedFrom="0" laneChangedTo="0"/>
        <edge id="5to3" sampledSeconds="0.00" departed="0" arrived="0" entered="0" left="0" laneChangedFrom="0" laneChangedTo="0"/>
    </interval>
    <interval begin="0.00" end="500.00" id="5">
        <edge id="-1to0" sampledSeconds="330.29" CO_abs="8941.322005" CO2_abs="651113.700505" HC_abs="248.708801" PMx_abs="70.608492" NOx_abs="1297.175062" fuel_abs="259.588866" electricity_abs="0"
            CO_normed="643775.184343" CO2_normed="46880186.436391" HC_normed="17907.033678" PMx_normed="5083.811416" NOx_normed="93396.604437" fuel_normed="18690.398379" electricity_normed="0"
            traveltime="0.04" CO_perVeh="0.999030" CO2_perVeh="72.750134" HC_perVeh="0.027789" PMx_perVeh="0.007889" NOx_perVeh="0.144936" fuel_perVeh="0.029004" electricity_perVeh="0"/>
        <edge id="0to1" sampledSeconds="5351.58" CO_abs="58833.237356" CO2_abs="8752970.639741" HC_abs="2119.402950" PMx_abs="721.328400" NOx_abs="16465.657492" fuel_abs="3489.677110" electricity_abs="0"
            CO_normed="429.539845" CO2_normed="63905.197487" HC_normed="15.473703" PMx_normed="5.266399" NOx_normed="120.215312" fuel_normed="25.478036" electricity_normed="0"
            traveltime="78.37" CO_perVeh="861.610202" CO2_perVeh="128186.874335" HC_perVeh="31.038564" PMx_perVeh="10.563823" NOx_perVeh="241.138838" fuel_perVeh="51.106170" electricity_perVeh="0"/>
        <edge id="0to2" sampledSeconds="7635.50" CO_abs="87190.733757" CO2_abs="12632053.803846" HC_abs="3087.381639" PMx_abs="1052.867245" NOx_abs="23835.635492" fuel_abs="5036.208815" electricity_abs="0"
            CO_normed="636.577145" CO2_normed="92226.276796" HC_normed="22.540888" PMx_normed="7.686955" NOx_normed="174.023318" fuel_normed="36.769222" electricity_normed="0"
            traveltime="78.75" CO_perVeh="899.208261" CO2_perVeh="130275.852023" HC_perVeh="31.840529" PMx_perVeh="10.858343" NOx_perVeh="245.819704" fuel_perVeh="51.939012" electricity_perVeh="0"/>
        <edge id="1to0" sampledSeconds="0.00" CO_abs="0" CO2_abs="0" HC_abs="0" PMx_abs="0" NOx_abs="0" fuel_abs="0" electricity_abs="0"
            CO_normed="0" CO2_normed="0" HC_normed="0" PMx_normed="0" NOx_normed="0" fuel_normed="0" electricity_normed="0"/>
        <edge id="1to2" sampledSeconds="0.00" CO_abs="0" CO2_abs="0" HC_abs="0" PMx_abs="0" NOx_abs="0" fuel_abs="0" electricity_abs="0"
            CO_normed="0" CO2_normed="0" HC_normed="0" PMx_normed="0" NOx_normed="0" fuel_normed="0" electricity_normed="0"/>
        <edge id="1to3" sampledSeconds="4002.75" CO_abs="27318.299974" CO2_abs="5602843.411423" HC_abs="1245.884322" PMx_abs="405.293117" NOx_abs="10181.329874" fuel_abs="2233.769447" electricity_abs="0"
            CO_normed="247.785034" CO2_normed="50819.441373" HC_normed="11.300538" PMx_normed="3.676128" NOx_normed="92.347663" fuel_normed="20.260947" electricity_normed="0"
            traveltime="62.21" CO_perVeh="424.577120" CO2_perVeh="87078.592825" HC_perVeh="19.363356" PMx_perVeh="6.299008" NOx_perVeh="158.236776" fuel_perVeh="34.716926" electricity_perVeh="0"/>
        <edge id="2to0" sampledSeconds="0.00" CO_abs="0" CO2_abs="0" HC_abs="0" PMx_abs="0" NOx_abs="0" fuel_abs="0" electricity_abs="0"
            CO_normed="0" CO2_normed="0" HC_normed="0" PMx_normed="0" NOx_normed="0" fuel_normed="0" electricity_normed="0"/>
        <edge id="2to4" sampledSeconds="4732.84" CO_abs="32711.676726" CO2_abs="6736684.368118" HC_abs="1495.975483" PMx_abs="487.269414" NOx_abs="12236.616810" fuel_abs="2685.814797" electricity_abs="0"
            CO_normed="296.704551" CO2_normed="61103.713090" HC_normed="13.568939" PMx_normed="4.419677" NOx_normed="110.989722" fuel_normed="24.361132" electricity_normed="0"
            traveltime="62.22" CO_perVeh="430.033914" CO2_perVeh="88561.731998" HC_perVeh="19.666378" PMx_perVeh="6.405736" NOx_perVeh="160.864888" fuel_perVeh="35.308231" electricity_perVeh="0"/>
        <edge id="3to4" sampledSeconds="0.00" CO_abs="0" CO2_abs="0" HC_abs="0" PMx_abs="0" NOx_abs="0" fuel_abs="0" electricity_abs="0"
            CO_normed="0" CO2_normed="0" HC_normed="0" PMx_normed="0" NOx_normed="0" fuel_normed="0" electricity_normed="0"/>
        <edge id="3to5" sampledSeconds="4913.75" CO_abs="34508.735864" CO2_abs="6626060.558174" HC_abs="1506.940130" PMx_abs="489.948425" NOx_abs="12096.777807" fuel_abs="2641.710594" electricity_abs="0"
            CO_normed="251.074069" CO2_normed="48209.009720" HC_normed="10.963994" PMx_normed="3.564702" NOx_normed="88.012126" fuel_normed="19.220206" electricity_normed="0"
            traveltime="81.45" CO_perVeh="572.018651" CO2_perVeh="109833.934110" HC_perVeh="24.979120" PMx_perVeh="8.121411" NOx_perVeh="200.516836" fuel_perVeh="43.789136" electricity_perVeh="0"/>
        <edge id="4to2" sampledSeconds="0.00" CO_abs="0" CO2_abs="0" HC_abs="0" PMx_abs="0" NOx_abs="0" fuel_abs="0" electricity_abs="0"
            CO_normed="0" CO2_normed="0" HC_normed="0" PMx_normed="0" NOx_normed="0" fuel_normed="0" electricity_normed="0"/>
        <edge id="4to3" sampledSeconds="0.00" CO_abs="0" CO2_abs="0" HC_abs="0" PMx_abs="0" NOx_abs="0" fuel_abs="0" electricity_abs="0"
            CO_normed="0" CO2_normed="0" HC_normed="0" PMx_normed="0" NOx_normed="0" fuel_normed="0" electricity_normed="0"/>
        <edge id="4to5" sampledSeconds="4291.19" CO_abs="29084.164870" CO2_abs="6071220.922044" HC_abs="1344.346285" PMx_abs="437.481088" NOx_abs="11014.962678" fuel_abs="2420.504537" electricity_abs="0"
            CO_normed="211.606697" CO2_normed="44172.181324" HC_normed="9.781016" PMx_normed="3.182967" NOx_normed="80.141200" fuel_normed="17.610785" electricity_normed="0"
            traveltime="77.57" CO_perVeh="525.775079" CO2_perVeh="109753.767108" HC_perVeh="24.302701" PMx_perVeh="7.908656" NOx_perVeh="199.125294" fuel_perVeh="43.757177" electricity_perVeh="0"/>
        <edge id="5to-5" sampledSeconds="34.40" CO_abs="1185.424827" CO2_abs="92347.689521" HC_abs="29.770461" PMx_abs="10.554338" NOx_abs="190.847744" fuel_abs="36.817596" electricity_abs="0"
            CO_normed="85350.587552" CO2_normed="6649033.645529" HC_normed="2143.473161" PMx_normed="759.912328" NOx_normed="13741.037579" fuel_normed="2650.866888" electricity_normed="0"
            traveltime="0.01" CO_perVeh="0.395425" CO2_perVeh="30.804610" HC_perVeh="0.009931" PMx_perVeh="0.003521" NOx_perVeh="0.063661" fuel_perVeh="0.012281" electricity_perVeh="0"/>
        <edge id="5to3" sampledSeconds="0.00" CO_abs="0" CO2_abs="0" HC_abs="0" PMx_abs="0" NOx_abs="0" fuel_abs="0" electricity_abs="0"
            CO_normed="0" CO2_normed="0" HC_normed="0" PMx_normed="0" NOx_normed="0" fuel_normed="0" electricity_normed="0"/>
    </interval>
    <interval begin="500.00" end="1000.00" id="2">
        <edge id="-1to0" sampledSeconds="316.20" traveltime="0.04" density="6324.02" occupancy="3162.01" waitingTime="0.00" speed="2.72" departed="172" arrived="0" entered="0" left="172" laneChangedFrom="0" laneChangedTo="0"/>
        <edge id="0to1" sampledSeconds="2900.73" traveltime="78.29" density="5.88" occupancy="2.94" waitingTime="0.00" speed="12.60" departed="0" arrived="0" entered="36" left="34" laneChangedFrom="0" laneChangedTo="0"/>
        <edge id="0to2" sampledSeconds="10729.81" traveltime="78.55" density="21.76" occupancy="10.88" waitingTime="0.00" speed="12.55" departed="0" arrived="0" entered="135" left="139" laneChangedFrom="0" laneChangedTo="0"/>
        <edge id="1to0" sampledSeconds="0.00" departed="0" arrived="0" entered="0" left="0" laneChangedFrom="0" laneChangedTo="0"/>
        <edge id="1to2" sampledSeconds="0.00" departed="0" arrived="0" entered="0" left="0" laneChangedFrom="0" laneChangedTo="0"/>
        <edge id="1to3" sampledSeconds="2210.57" traveltime="62.13" density="5.57" occupancy="2.78" waitingTime="0.00" speed="12.78" departed="0" arrived="0" entered="34" left="37" laneChangedFrom="0" laneChangedTo="0"/>
        <edge id="2to0" sampledSeconds="0.00" departed="0" arrived="0" entered="0" left="0" laneChangedFrom="0" laneChangedTo="0"/>
        <edge id="2to4" sampledSeconds="8651.04" traveltime="62.20" density="21.80" occupancy="10.90" waitingTime="0.00" speed="12.76" departed="0" arrived="0" entered="139" left="136" laneChangedFrom="0" laneChangedTo="0"/>
        <edge id="3to4" sampledSeconds="0.00" departed="0" arrived="0" entered="0" left="0" laneChangedFrom="0" laneChangedTo="0"/>
        <edge id="3to5" sampledSeconds="3139.94" traveltime="84.76" density="6.35" occupancy="3.17" waitingTime="130.00" speed="11.68" departed="0" arrived="0" entered="37" left="40" laneChangedFrom="0" laneChangedTo="0"/>
        <edge id="4to2" sampledSeconds="0.00" departed="0" arrived="0" entered="0" left="0" laneChangedFrom="0" laneChangedTo="0"/>
        <edge id="4to3" sampledSeconds="0.00" departed="0" arrived="0" entered="0" left="0" laneChangedFrom="0" laneChangedTo="0"/>
        <edge id="4to5" sampledSeconds="10660.18" traveltime="77.57" density="21.54" occupancy="10.77" waitingTime="0.00" speed="12.76" departed="0" arrived="0" entered="136" left="134" laneChangedFrom="0" laneChangedTo="0"/>
        <edge id="5to-5" sampledSeconds="58.79" traveltime="0.01" density="1175.75" occupancy="587.87" waitingTime="0.00" speed="11.12" departed="0" arrived="174" entered="174" left="0" laneChangedFrom="0" laneChangedTo="0"/>
        <edge id="5to3" sampledSeconds="0.00" departed="0" arrived="0" entered="0" left="0" laneChangedFrom="0" laneChangedTo="0"/>
    </interval>
    <interval begin="500.00" end="1000.00" id="6">
        <edge id="-1to0" sampledSeconds="316.20" CO_abs="8490.822887" CO2_abs="621195.102340" HC_abs="237.027197" PMx_abs="67.043836" NOx_abs="1235.709819" fuel_abs="247.660789" electricity_abs="0"
            CO_normed="611339.247883" CO2_normed="44726047.368464" HC_normed="17065.958162" PMx_normed="4827.156192" NOx_normed="88971.106982" fuel_normed="17831.576776" electricity_normed="0"
            traveltime="0.04" CO_perVeh="0.987305" CO2_perVeh="72.231989" HC_perVeh="0.027561" PMx_perVeh="0.007796" NOx_perVeh="0.143687" fuel_perVeh="0.028798" electricity_perVeh="0"/>
        <edge id="0to1" sampledSeconds="2900.73" CO_abs="30776.490776" CO2_abs="4663036.255816" HC_abs="1123.497744" PMx_abs="381.110711" NOx_abs="8752.544751" fuel_abs="1859.082107" electricity_abs="0"
            CO_normed="224.698311" CO2_normed="34044.699232" HC_normed="8.202626" PMx_normed="2.782479" NOx_normed="63.902088" fuel_normed="13.573107" electricity_normed="0"
            traveltime="78.29" CO_perVeh="830.637358" CO2_perVeh="125852.298959" HC_perVeh="30.322469" PMx_perVeh="10.285929" NOx_perVeh="236.225459" fuel_perVeh="50.175410" electricity_perVeh="0"/>
        <edge id="0to2" sampledSeconds="10729.81" CO_abs="117323.487759" CO2_abs="17369679.463423" HC_abs="4217.267555" PMx_abs="1432.338301" NOx_abs="32684.809046" fuel_abs="6925.028650" electricity_abs="0"
            CO_normed="856.575552" CO2_normed="126815.551210" HC_normed="30.790154" PMx_normed="10.457462" NOx_normed="238.630890" fuel_normed="50.559443" electricity_normed="0"
            traveltime="78.55" CO_perVeh="858.877170" CO2_perVeh="127156.304512" HC_perVeh="30.872887" PMx_perVeh="10.485562" NOx_perVeh="239.272091" fuel_perVeh="50.695297" electricity_perVeh="0"/>
        <edge id="1to0" sampledSeconds="0.00" CO_abs="0" CO2_abs="0" HC_abs="0" PMx_abs="0" NOx_abs="0" fuel_abs="0" electricity_abs="0"
            CO_normed="0" CO2_normed="0" HC_normed="0" PMx_normed="0" NOx_normed="0" fuel_normed="0" electricity_normed="0"/>
        <edge id="1to2" sampledSeconds="0.00" CO_abs="0" CO2_abs="0" HC_abs="0" PMx_abs="0" NOx_abs="0" fuel_abs="0" electricity_abs="0"
            CO_normed="0" CO2_normed="0" HC_normed="0" PMx_normed="0" NOx_normed="0" fuel_normed="0" electricity_normed="0"/>
        <edge id="1to3" sampledSeconds="2210.57" CO_abs="15388.822800" CO2_abs="3162248.596786" HC_abs="702.399202" PMx_abs="228.903431" NOx_abs="5746.001626" fuel_abs="1260.740988" electricity_abs="0"
            CO_normed="139.581159" CO2_normed="28682.526955" HC_normed="6.370968" PMx_normed="2.076222" NOx_normed="52.117929" fuel_normed="11.435292" electricity_normed="0"
            traveltime="62.13" CO_perVeh="432.532222" CO2_perVeh="88881.029521" HC_perVeh="19.742270" PMx_perVeh="6.433768" NOx_perVeh="161.502337" fuel_perVeh="35.435531" electricity_perVeh="0"/>
        <edge id="2to0" sampledSeconds="0.00" CO_abs="0" CO2_abs="0" HC_abs="0" PMx_abs="0" NOx_abs="0" fuel_abs="0" electricity_abs="0"
            CO_normed="0" CO2_normed="0" HC_normed="0" PMx_normed="0" NOx_normed="0" fuel_normed="0" electricity_normed="0"/>
        <edge id="2to4" sampledSeconds="8651.04" CO_abs="59543.271172" CO2_abs="12161895.292907" HC_abs="2705.653046" PMx_abs="880.536940" NOx_abs="22106.127385" fuel_abs="4848.764839" electricity_abs="0"
            CO_normed="540.075022" CO2_normed="110311.975446" HC_normed="24.541071" PMx_normed="7.986730" NOx_normed="200.509092" fuel_normed="43.979726" electricity_normed="0"
            traveltime="62.20" CO_perVeh="428.095106" CO2_perVeh="87439.735115" HC_perVeh="19.452691" PMx_perVeh="6.330750" NOx_perVeh="158.935254" fuel_perVeh="34.860908" electricity_perVeh="0"/>
        <edge id="3to4" sampledSeconds="0.00" CO_abs="0" CO2_abs="0" HC_abs="0" PMx_abs="0" NOx_abs="0" fuel_abs="0" electricity_abs="0"
            CO_normed="0" CO2_normed="0" HC_normed="0" PMx_normed="0" NOx_normed="0" fuel_normed="0" electricity_normed="0"/>
        <edge id="3to5" sampledSeconds="3139.94" CO_abs="21576.536258" CO2_abs="4066030.728335" HC_abs="929.496254" PMx_abs="302.064593" NOx_abs="7434.715684" fuel_abs="1621.065226" electricity_abs="0"
            CO_normed="156.983691" CO2_normed="29583.085331" HC_normed="6.762705" PMx_normed="2.197721" NOx_normed="54.092515" fuel_normed="11.794331" electricity_normed="0"
            traveltime="84.76" CO_perVeh="582.423328" CO2_perVeh="109755.853378" HC_perVeh="25.090232" PMx_perVeh="8.153740" NOx_perVeh="200.687997" fuel_perVeh="43.758006" electricity_perVeh="0"/>
        <edge id="4to2" sampledSeconds="0.00" CO_abs="0" CO2_abs="0" HC_abs="0" PMx_abs="0" NOx_abs="0" fuel_abs="0" electricity_abs="0"
            CO_normed="0" CO2_normed="0" HC_normed="0" PMx_normed="0" NOx_normed="0" fuel_normed="0" electricity_normed="0"/>
        <edge id="4to3" sampledSeconds="0.00" CO_abs="0" CO2_abs="0" HC_abs="0" PMx_abs="0" NOx_abs="0" fuel_abs="0" electricity_abs="0"
            CO_normed="0" CO2_normed="0" HC_normed="0" PMx_normed="0" NOx_normed="0" fuel_normed="0" electricity_normed="0"/>
        <edge id="4to5" sampledSeconds="10660.18" CO_abs="73377.427170" CO2_abs="15016270.228651" HC_abs="3338.925913" PMx_abs="1089.207904" NOx_abs="27294.686483" fuel_abs="5986.761218" electricity_abs="0"
            CO_normed="533.869721" CO2_normed="109253.380807" HC_normed="24.292913" PMx_normed="7.924714" NOx_normed="198.587048" fuel_normed="43.557681" electricity_normed="0"
            traveltime="77.57" CO_perVeh="533.959860" CO2_perVeh="109271.827363" HC_perVeh="24.297015" PMx_perVeh="7.926052" NOx_perVeh="198.620578" fuel_perVeh="43.565035" electricity_perVeh="0"/>
        <edge id="5to-5" sampledSeconds="58.79" CO_abs="1045.782578" CO2_abs="118931.945895" HC_abs="32.422053" PMx_abs="11.001044" NOx_abs="230.308790" fuel_abs="47.416353" electricity_abs="0"
            CO_normed="75296.345638" CO2_normed="8563100.104433" HC_normed="2334.387817" PMx_normed="792.075198" NOx_normed="16582.232890" fuel_normed="3413.977444" electricity_normed="0"
            traveltime="8.994125e-003" CO_perVeh="0.159999" CO2_perVeh="18.195922" HC_perVeh="0.004960" PMx_perVeh="0.001683" NOx_perVeh="0.035236" fuel_perVeh="0.007254" electricity_perVeh="0"/>
        <edge id="5to3" sampledSeconds="0.00" CO_abs="0" CO2_abs="0" HC_abs="0" PMx_abs="0" NOx_abs="0" fuel_abs="0" electricity_abs="0"
            CO_normed="0" CO2_normed="0" HC_normed="0" PMx_normed="0" NOx_normed="0" fuel_normed="0" electricity_normed="0"/>
    </interval>
    <interval begin="1000.00" end="1500.00" id="3">
        <edge id="-1to0" sampledSeconds="277.41" traveltime="0.04" density="5548.29" occupancy="2774.14" waitingTime="1.00" speed="2.69" departed="149" arrived="0" entered="0" left="149" laneChangedFrom="0" laneChangedTo="0"/>
        <edge id="0to1" sampledSeconds="3950.54" traveltime="78.30" density="8.01" occupancy="4.01" waitingTime="0.00" speed="12.59" departed="0" arrived="0" entered="49" left="55" laneChangedFrom="0" laneChangedTo="0"/>
        <edge id="0to2" sampledSeconds="8883.82" traveltime="78.49" density="18.02" occupancy="9.01" waitingTime="0.00" speed="12.56" departed="0" arrived="0" entered="101" left="121" laneChangedFrom="0" laneChangedTo="0"/>
        <edge id="1to0" sampledSeconds="0.00" departed="0" arrived="0" entered="0" left="0" laneChangedFrom="0" laneChangedTo="0"/>
        <edge id="1to2" sampledSeconds="0.00" departed="0" arrived="0" entered="0" left="0" laneChangedFrom="0" laneChangedTo="0"/>
        <edge id="1to3" sampledSeconds="3197.95" traveltime="62.19" density="8.06" occupancy="4.03" waitingTime="0.00" speed="12.76" departed="0" arrived="0" entered="55" left="49" laneChangedFrom="0" laneChangedTo="0"/>
        <edge id="2to0" sampledSeconds="0.00" departed="0" arrived="0" entered="0" left="0" laneChangedFrom="0" laneChangedTo="0"/>
        <edge id="2to4" sampledSeconds="7841.16" traveltime="62.21" density="19.76" occupancy="9.88" waitingTime="0.00" speed="12.76" departed="0" arrived="0" entered="121" left="127" laneChangedFrom="0" laneChangedTo="0"/>
        <edge id="3to4" sampledSeconds="0.00" departed="0" arrived="0" entered="0" left="0" laneChangedFrom="0" laneChangedTo="0"/>
        <edge id="3to5" sampledSeconds="3772.46" traveltime="81.48" density="7.62" occupancy="3.81" waitingTime="70.00" speed="12.15" departed="0" arrived="0" entered="49" left="44" laneChangedFrom="0" laneChangedTo="0"/>
        <edge id="4to2" sampledSeconds="0.00" departed="0" arrived="0" entered="0" left="0" laneChangedFrom="0" laneChangedTo="0"/>
        <edge id="4to3" sampledSeconds="0.00" departed="0" arrived="0" entered="0" left="0" laneChangedFrom="0" laneChangedTo="0"/>
        <edge id="4to5" sampledSeconds="10130.82" traveltime="77.63" density="20.47" occupancy="10.24" waitingTime="0.00" speed="12.75" departed="0" arrived="0" entered="127" left="132" laneChangedFrom="0" laneChangedTo="0"/>
        <edge id="5to-5" sampledSeconds="52.61" traveltime="0.01" density="1052.10" occupancy="526.05" waitingTime="0.00" speed="11.20" departed="0" arrived="176" entered="176" left="0" laneChangedFrom="0" laneChangedTo="0"/>
        <edge id="5to3" sampledSeconds="0.00" departed="0" arrived="0" entered="0" left="0" laneChangedFrom="0" laneChangedTo="0"/>
    </interval>
    <interval begin="1000.00" end="1500.00" id="7">
        <edge id="-1to0" sampledSeconds="277.41" CO_abs="7270.665452" CO2_abs="535835.102042" HC_abs="204.751583" PMx_abs="57.295715" NOx_abs="1062.153093" fuel_abs="213.629089" electricity_abs="0"
            CO_normed="523487.912528" CO2_normed="38580127.347021" HC_normed="14742.113966" PMx_normed="4125.291467" NOx_normed="76475.022728" fuel_normed="15381.294429" electricity_normed="0"
            traveltime="0.04" CO_perVeh="0.975928" CO2_perVeh="71.924175" HC_perVeh="0.027483" PMx_perVeh="0.007691" NOx_perVeh="0.142571" fuel_perVeh="0.028675" electricity_perVeh="0"/>
        <edge id="0to1" sampledSeconds="3950.54" CO_abs="42449.798529" CO2_abs="6409096.208156" HC_abs="1545.360387" PMx_abs="524.708390" NOx_abs="12034.952911" fuel_abs="2555.209825" electricity_abs="0"
            CO_normed="309.924810" CO2_normed="46792.634839" HC_normed="11.282634" PMx_normed="3.830881" NOx_normed="87.866860" fuel_normed="18.655517" electricity_normed="0"
            traveltime="78.30" CO_perVeh="841.401179" CO2_perVeh="127035.257922" HC_perVeh="30.630724" PMx_perVeh="10.400291" NOx_perVeh="238.545857" fuel_perVeh="50.647038" electricity_perVeh="0"/>
        <edge id="0to2" sampledSeconds="8883.82" CO_abs="92603.922182" CO2_abs="14160870.425283" HC_abs="3406.928455" PMx_abs="1151.935918" NOx_abs="26540.097433" fuel_abs="5645.725099" electricity_abs="0"
            CO_normed="676.098685" CO2_normed="103388.124828" HC_normed="24.873891" PMx_normed="8.410252" NOx_normed="193.768520" fuel_normed="41.219283" electricity_normed="0"
            traveltime="78.49" CO_perVeh="818.169401" CO2_perVeh="125113.392543" HC_perVeh="30.100719" PMx_perVeh="10.177525" NOx_perVeh="234.485701" fuel_perVeh="49.880819" electricity_perVeh="0"/>
        <edge id="1to0" sampledSeconds="0.00" CO_abs="0" CO2_abs="0" HC_abs="0" PMx_abs="0" NOx_abs="0" fuel_abs="0" electricity_abs="0"
            CO_normed="0" CO2_normed="0" HC_normed="0" PMx_normed="0" NOx_normed="0" fuel_normed="0" electricity_normed="0"/>
        <edge id="1to2" sampledSeconds="0.00" CO_abs="0" CO2_abs="0" HC_abs="0" PMx_abs="0" NOx_abs="0" fuel_abs="0" electricity_abs="0"
            CO_normed="0" CO2_normed="0" HC_normed="0" PMx_normed="0" NOx_normed="0" fuel_normed="0" electricity_normed="0"/>
        <edge id="1to3" sampledSeconds="3197.95" CO_abs="21289.264798" CO2_abs="4464457.426094" HC_abs="987.665455" PMx_abs="321.271397" NOx_abs="8097.555949" fuel_abs="1779.912086" electricity_abs="0"
            CO_normed="193.099907" CO2_normed="40493.944908" HC_normed="8.958417" PMx_normed="2.914026" NOx_normed="73.447219" fuel_normed="16.144327" electricity_normed="0"
            traveltime="62.19" CO_perVeh="414.012922" CO2_perVeh="86820.427194" HC_perVeh="19.207157" PMx_perVeh="6.247774" NOx_perVeh="157.473395" fuel_perVeh="34.614000" electricity_perVeh="0"/>
        <edge id="2to0" sampledSeconds="0.00" CO_abs="0" CO2_abs="0" HC_abs="0" PMx_abs="0" NOx_abs="0" fuel_abs="0" electricity_abs="0"
            CO_normed="0" CO2_normed="0" HC_normed="0" PMx_normed="0" NOx_normed="0" fuel_normed="0" electricity_normed="0"/>
        <edge id="2to4" sampledSeconds="7841.16" CO_abs="53590.034611" CO2_abs="11067831.325071" HC_abs="2455.974386" PMx_abs="800.448262" NOx_abs="20100.473636" fuel_abs="4412.577996" electricity_abs="0"
            CO_normed="486.077411" CO2_normed="100388.492744" HC_normed="22.276412" PMx_normed="7.260302" NOx_normed="182.317221" fuel_normed="40.023383" electricity_normed="0"
            traveltime="62.21" CO_perVeh="425.184403" CO2_perVeh="87812.394298" HC_perVeh="19.485750" PMx_perVeh="6.350772" NOx_perVeh="159.477558" fuel_perVeh="35.009482" electricity_perVeh="0"/>
        <edge id="3to4" sampledSeconds="0.00" CO_abs="0" CO2_abs="0" HC_abs="0" PMx_abs="0" NOx_abs="0" fuel_abs="0" electricity_abs="0"
            CO_normed="0" CO2_normed="0" HC_normed="0" PMx_normed="0" NOx_normed="0" fuel_normed="0" electricity_normed="0"/>
        <edge id="3to5" sampledSeconds="3772.46" CO_abs="26426.002661" CO2_abs="5075215.209795" HC_abs="1152.537523" PMx_abs="374.883891" NOx_abs="9268.900186" fuel_abs="2023.411913" electricity_abs="0"
            CO_normed="192.266794" CO2_normed="36925.575496" HC_normed="8.385479" PMx_normed="2.727530" NOx_normed="67.437431" fuel_normed="14.721671" electricity_normed="0"
            traveltime="81.48" CO_perVeh="570.761380" CO2_perVeh="109616.913110" HC_perVeh="24.893054" PMx_perVeh="8.096921" NOx_perVeh="200.194117" fuel_perVeh="43.702613" electricity_perVeh="0"/>
        <edge id="4to2" sampledSeconds="0.00" CO_abs="0" CO2_abs="0" HC_abs="0" PMx_abs="0" NOx_abs="0" fuel_abs="0" electricity_abs="0"
            CO_normed="0" CO2_normed="0" HC_normed="0" PMx_normed="0" NOx_normed="0" fuel_normed="0" electricity_normed="0"/>
        <edge id="4to3" sampledSeconds="0.00" CO_abs="0" CO2_abs="0" HC_abs="0" PMx_abs="0" NOx_abs="0" fuel_abs="0" electricity_abs="0"
            CO_normed="0" CO2_normed="0" HC_normed="0" PMx_normed="0" NOx_normed="0" fuel_normed="0" electricity_normed="0"/>
        <edge id="4to5" sampledSeconds="10130.82" CO_abs="71433.195233" CO2_abs="14278667.537436" HC_abs="3192.964803" PMx_abs="1040.881213" NOx_abs="26005.094496" fuel_abs="5692.690044" electricity_abs="0"
            CO_normed="519.724137" CO2_normed="103886.829294" HC_normed="23.230948" PMx_normed="7.573105" NOx_normed="189.204406" fuel_normed="41.418117" electricity_normed="0"
            traveltime="77.63" CO_perVeh="547.398576" CO2_perVeh="109418.628894" HC_perVeh="24.467958" PMx_perVeh="7.976360" NOx_perVeh="199.279224" fuel_perVeh="43.623562" electricity_perVeh="0"/>
        <edge id="5to-5" sampledSeconds="52.61" CO_abs="861.547225" CO2_abs="103548.514105" HC_abs="27.733557" PMx_abs="9.379359" NOx_abs="198.945473" fuel_abs="41.283216" electricity_abs="0"
            CO_normed="62031.400185" CO2_normed="7455493.015568" HC_normed="1996.816125" PMx_normed="675.313837" NOx_normed="14324.074073" fuel_normed="2972.391525" electricity_normed="0"
            traveltime="8.929124e-003" CO_perVeh="0.146238" CO2_perVeh="17.576196" HC_perVeh="0.004707" PMx_perVeh="0.001592" NOx_perVeh="0.033769" fuel_perVeh="0.007007" electricity_perVeh="0"/>
        <edge id="5to3" sampledSeconds="0.00" CO_abs="0" CO2_abs="0" HC_abs="0" PMx_abs="0" NOx_abs="0" fuel_abs="0" electricity_abs="0"
            CO_normed="0" CO2_normed="0" HC_normed="0" PMx_normed="0" NOx_normed="0" fuel_normed="0" electricity_normed="0"/>
    </interval>
    <interval begin="1500.00" end="1639.00" id="4">
        <edge id="-1to0" sampledSeconds="0.00" departed="0" arrived="0" entered="0" left="0" laneChangedFrom="0" laneChangedTo="0"/>
        <edge id="0to1" sampledSeconds="0.00" departed="0" arrived="0" entered="0" left="0" laneChangedFrom="0" laneChangedTo="0"/>
        <edge id="0to2" sampledSeconds="0.00" departed="0" arrived="0" entered="0" left="0" laneChangedFrom="0" laneChangedTo="0"/>
        <edge id="1to0" sampledSeconds="0.00" departed="0" arrived="0" entered="0" left="0" laneChangedFrom="0" laneChangedTo="0"/>
        <edge id="1to2" sampledSeconds="0.00" departed="0" arrived="0" entered="0" left="0" laneChangedFrom="0" laneChangedTo="0"/>
        <edge id="1to3" sampledSeconds="287.23" traveltime="61.99" density="2.60" occupancy="1.30" waitingTime="0.00" speed="12.81" departed="0" arrived="0" entered="0" left="8" laneChangedFrom="0" laneChangedTo="0"/>
        <edge id="2to0" sampledSeconds="0.00" departed="0" arrived="0" entered="0" left="0" laneChangedFrom="0" laneChangedTo="0"/>