<?xml version="1.0" encoding="UTF-8"?>

<!-- generated on 07/21/16 09:20:56 by SUMO Version 0.27.0
<?xml version="1.0" encoding="UTF-8"?>

<configuration xmlns:xsi="http://www.w3.org/2001/XMLSchema-instance" xsi:noNamespaceSchemaLocation="http://sumo.dlr.de/xsd/sumoConfiguration.xsd">

    <input>
        <net-file value="./../network/simple.net.xml"/>
        <route-files value="./../trips/trip.xml"/>
        <additional-files value="./additional_4to5__500_1000.xml"/>
    </input>

    <output>
        <summary-output value="./../output/summary_4to5__500_1000.xml"/>
    </output>

    <report>
        <log value="./../output/report_4to5__500_1000.xml"/>
    </report>

</configuration>
-->

<meandata xmlns:xsi="http://www.w3.org/2001/XMLSchema-instance" xsi:noNamespaceSchemaLocation="http://sumo.dlr.de/xsd/meandata_file.xsd">
    <interval begin="0.00" end="500.00" id="1">
        <edge id="-1to0" sampledSeconds="330.29" traveltime="0.04" density="6605.70" occupancy="3302.85" waitingTime="1.00" speed="2.71" departed="179" arrived="0" entered="0" left="179" laneChangedFrom="0" laneChangedTo="0"/>
        <edge id="0to1" sampledSeconds="5351.58" traveltime="78.37" density="10.85" occupancy="5.43" waitingTime="0.00" speed="12.58" departed="0" arrived="0" entered="70" left="66" laneChangedFrom="0" laneChangedTo="0"/>
        <edge id="0to2" sampledSeconds="7635.50" traveltime="78.75" density="15.49" occupancy="7.74" waitingTime="0.00" speed="12.52" departed="0" arrived="0" entered="109" left="85" laneChangedFrom="0" laneChangedTo="0"/>
        <edge id="1to0" sampledSeconds="0.00" departed="0" arrived="0" entered="0" left="0" laneChangedFrom="0" laneChangedTo="0"/>
        <edge id="1to2" sampledSeconds="0.00" departed="0" arrived="0" entered="0" left="0" laneChangedFrom="0" laneChangedTo="0"/>
        <edge id="1to3" sampledSeconds="4002.75" traveltime="62.21" density="10.09" occupancy="5.04" waitingTime="0.00" speed="12.76" departed="0" arrived="0" entered="66" left="61" laneChangedFrom="0" laneChangedTo="0"/>
        <edge id="2to0" sampledSeconds="0.00" departed="0" arrived="0" entered="0" left="0" laneChangedFrom="0" laneChangedTo="0"/>
        <edge id="2to4" sampledSeconds="4732.84" traveltime="62.22" density="11.92" occupancy="5.96" waitingTime="0.00" speed="12.76" departed="0" arrived="0" entered="85" left="68" laneChangedFrom="0" laneChangedTo="0"/>
        <edge id="3to4" sampledSeconds="0.00" departed="0" arrived="0" entered="0" left="0" laneChangedFrom="0" laneChangedTo="0"/>
        <edge id="3to5" sampledSeconds="4913.75" traveltime="81.45" density="9.93" occupancy="4.97" waitingTime="51.00" speed="12.15" departed="0" arrived="0" entered="61" left="55" laneChangedFrom="0" laneChangedTo="0"/>
        <edge id="4to2" sampledSeconds="0.00" departed="0" arrived="0" entered="0" left="0" laneChangedFrom="0" laneChangedTo="0"/>
        <edge id="4to3" sampledSeconds="0.00" departed="0" arrived="0" entered="0" left="0" laneChangedFrom="0" laneChangedTo="0"/>
        <edge id="4to5" sampledSeconds="4291.19" traveltime="77.57" density="8.67" occupancy="4.34" waitingTime="0.00" speed="12.76" departed="0" arrived="0" entered="68" left="45" laneChangedFrom="0" laneChangedTo="0"/>
        <edge id="5to-5" sampledSeconds="34.40" traveltime="0.01" density="687.96" occupancy="343.98" waitingTime="0.00" speed="8.72" departed="0" arrived="100" entered="100" left="0" laneChangedFrom="0" laneChangedTo="0"/>
        <edge id="5to3" sampledSeconds="0.00" departed="0" arrived="0" entered="0" left="0" laneChangedFrom="0" laneChangedTo="0"/>
    </interval>
    <interval begin="500.00" end="1000.00" id="2">
        <edge id="-1to0" sampledSeconds="308.45" traveltime="0.04" density="6168.96" occupancy="3084.48" waitingTime="0.00" speed="2.74" departed="169" arrived="0" entered="0" left="169" laneChangedFrom="0" laneChangedTo="0"/>
        <edge id="0to1" sampledSeconds="1028.62" traveltime="78.22" density="2.09" occupancy="1.04" waitingTime="0.00" speed="12.61" departed="0" arrived="0" entered="12" left="15" laneChangedFrom="0" laneChangedTo="0"/>
        <edge id="0to2" sampledSeconds="12348.29" traveltime="78.60" density="25.04" occupancy="12.52" waitingTime="0.00" speed="12.55" departed="0" arrived="0" entered="156" left="155" laneChangedFrom="0" laneChangedTo="0"/>
        <edge id="1to0" sampledSeconds="0.00" departed="0" arrived="0" entered="0" left="0" laneChangedFrom="0" laneChangedTo="0"/>
        <edge id="1to2" sampledSeconds="0.00" departed="0" arrived="0" entered="0" left="0" laneChangedFrom="0" laneChangedTo="0"/>
        <edge id="1to3" sampledSeconds="986.47" traveltime="62.20" density="2.49" occupancy="1.24" waitingTime="0.00" speed="12.76" departed="0" arrived="0" entered="15" left="18" laneChangedFrom="0" laneChangedTo="0"/>
        <edge id="2to0" sampledSeconds="0.00" departed="0" arrived="0" entered="0" left="0" laneChangedFrom="0" laneChangedTo="0"/>
        <edge id="2to4" sampledSeconds="9686.88" traveltime="62.21" density="24.41" occupancy="12.20" waitingTime="0.00" speed="12.76" departed="0" arrived="0" entered="155" left="153" laneChangedFrom="0" laneChangedTo="0"/>
        <edge id="3to4" sampledSeconds="0.00" departed="0" arrived="0" entered="0" left="0" laneChangedFrom="0" laneChangedTo="0"/>
        <edge id="3to5" sampledSeconds="10151.97" traveltime="79.82" density="20.52" occupancy="10.26" waitingTime="21.00" speed="12.40" departed="0" arrived="0" entered="138" left="119" laneChangedFrom="0" laneChangedTo="0"/>
        <edge id="4to2" sampledSeconds="0.00" departed="0" arrived="0" entered="0" left="0" laneChangedFrom="0" laneChangedTo="0"/>
        <edge id="4to3" sampledSeconds="13316.96" traveltime="96.04" density="22.43" occupancy="11.22" waitingTime="35.00" speed="12.36" departed="0" arrived="0" entered="152" left="121" laneChangedFrom="0" laneChangedTo="0"/>
        <edge id="4to5" sampledSeconds="1010.10" traveltime="77.54" density="2.04" occupancy="1.02" waitingTime="0.00" speed="12.76" departed="0" arrived="0" entered="0" left="23" laneChangedFrom="0" laneChangedTo="0"/>
        <edge id="5to-5" sampledSeconds="33.26" traveltime="0.01" density="665.19" occupancy="332.59" waitingTime="0.00" speed="8.88" departed="0" arrived="142" entered="142" left="0" laneChangedFrom="0" laneChangedTo="0"/>
        <edge id="5to3" sampledSeconds="0.00" departed="0" arrived="0" entered="0" left="0" laneChangedFrom="0" laneChangedTo="0"/>
    </interval>
    <interval begin="1000.00" end="1682.00" id="3">
        <edge id="-1to0" sampledSeconds="281.28" traveltime="0.04" density="4124.27" occupancy="2062.14" waitingTime="1.00" speed="2.70" departed="152" arrived="0" entered="0" left="152" laneChangedFrom="0" laneChangedTo="0"/>
        <edge id="0to1" sampledSeconds="942.47" traveltime="78.29" density="1.40" occupancy="0.70" waitingTime="0.00" speed="12.60" departed="0" arrived="0" entered="11" left="12" laneChangedFrom="0" laneChangedTo="0"/>
        <edge id="0to2" sampledSeconds="12168.66" traveltime="78.51" density="18.09" occupancy="9.05" waitingTime="0.00" speed="12.56" departed="0" arrived="0" entered="142" left="167" laneChangedFrom="0" laneChangedTo="0"/>
        <edge id="1to0" sampledSeconds="0.00" departed="0" arrived="0" entered="0" left="0" laneChangedFrom="0" laneChangedTo="0"/>
        <edge id="1to2" sampledSeconds="0.00" departed="0" arrived="0" entered="0" left="0" laneChangedFrom="0" laneChangedTo="0"/>
        <edge id="1to3" sampledSeconds="832.22" traveltime="62.18" density="1.54" occupancy="0.77" waitingTime="0.00" speed="12.77" departed="0" arrived="0" entered="12" left="14" laneChangedFrom="0" laneChangedTo="0"/>
        <edge id="2to0" sampledSeconds="0.00" departed="0" arrived="0" entered="0" left="0" laneChangedFrom="0" laneChangedTo="0"/>
        <edge id="2to4" sampledSeconds="11057.28" traveltime="62.20" density="20.42" occupancy="10.21" waitingTime="0.00" speed="12.76" departed="0" arrived="0" entered="167" left="186" laneChangedFrom="0" laneChangedTo="0"/>
        <edge id="3to4" sampledSeconds="0.00" departed="0" arrived="0" entered="0" left="0" laneChangedFrom="0" laneChangedTo="0"/>
        <edge id="3to5" sampledSeconds="14657.68" traveltime="185.99" density="21.72" occupancy="10.86" waitingTime="3046.00" speed="5.32" departed="0" arrived="0" entered="66" left="91" laneChangedFrom="0" laneChangedTo="0"/>
        <edge id="4to2" sampledSeconds="0.00" departed="0" arrived="0" entered="0" left="0" laneChangedFrom="0" laneChangedTo="0"/>
        <edge id="4to3" sampledSeconds="3315.57" traveltime="97.35" density="4.09" occupancy="2.05" waitingTime="2.00" speed="12.20" departed="0" arrived="0" entered="20" left="51" laneChangedFrom="0" laneChangedTo="0"/>
        <edge id="4to5" sampledSeconds="13025.41" traveltime="77.60" density="19.30" occupancy="9.65" waitingTime="0.00" speed="12.75" departed="0" arrived="0" entered="167" left="167" laneChangedFrom="0" laneChangedTo="0"/>
        <edge id="5to-5" sampledSeconds="84.04" traveltime="0.01" density="1232.27" occupancy="616.13" waitingTime="0.00" speed="10.46" departed="0" arrived="258" entered="258" left="0" laneChangedFrom="0" laneChangedTo="0"/>
        <edge id="5to3" sampledSeconds="0.00" departed="0" arrived="0" entered="0" left="0" laneChangedFrom="0" laneChangedTo="0"/>
    </interval>
</meandata>
