<?xml version="1.0" encoding="UTF-8"?>

<!-- generated on 8/11/2016 10:53:59 AM by SUMO gui Version 0.27.0
<?xml version="1.0" encoding="UTF-8"?>

<configuration xmlns:xsi="http://www.w3.org/2001/XMLSchema-instance" xsi:noNamespaceSchemaLocation="http://sumo.dlr.de/xsd/sumo-gui.exeConfiguration.xsd">

    <input>
        <net-file value="D:\Project%20Code\sumo_sim\simple\config\../network/simple.net.xml"/>
        <route-files value="D:\Project%20Code\sumo_sim\simple\config\../trips/trip.xml"/>
        <additional-files value="D:\Project%20Code\sumo_sim\simple\config\additional_0to1__0_500.xml"/>
    </input>

    <output>
        <summary-output value="D:\Project%20Code\sumo_sim\simple\config\../output/summary_0to1__0_500.xml"/>
    </output>

    <report>
        <log value="D:\Project%20Code\sumo_sim\simple\config\../output/report_0to1__0_500.xml"/>
    </report>

</configuration>
-->

<meandata xmlns:xsi="http://www.w3.org/2001/XMLSchema-instance" xsi:noNamespaceSchemaLocation="http://sumo.dlr.de/xsd/meandata_file.xsd">
</meandata>
