<?xml version="1.0" encoding="UTF-8"?>

<!-- generated on Tue Jul 26 13:52:29 2016 by SUMO Version 0.27.0
<?xml version="1.0" encoding="UTF-8"?>

<configuration xmlns:xsi="http://www.w3.org/2001/XMLSchema-instance" xsi:noNamespaceSchemaLocation="http://sumo.dlr.de/xsd/sumoConfiguration.xsd">

    <input>
        <net-file value="./../network/simple.net.xml"/>
        <route-files value="./../trips/trip.xml"/>
        <additional-files value="./additional_3to5__0_500.xml"/>
    </input>

    <output>
        <summary-output value="./../output/summary_3to5__0_500.xml"/>
    </output>

    <report>
        <log value="./../output/report_3to5__0_500.xml"/>
    </report>

</configuration>
-->

<meandata xmlns:xsi="http://www.w3.org/2001/XMLSchema-instance" xsi:noNamespaceSchemaLocation="http://sumo.dlr.de/xsd/meandata_file.xsd">
    <interval begin="0.00" end="500.00" id="1">
        <edge id="-1to0" sampledSeconds="321.57" traveltime="0.04" density="6431.38" occupancy="3215.69" waitingTime="0.00" speed="2.71" departed="175" arrived="0" entered="0" left="175" laneChangedFrom="0" laneChangedTo="0"/>
        <edge id="0to1" sampledSeconds="10248.64" traveltime="78.46" density="20.78" occupancy="10.39" waitingTime="0.00" speed="12.57" departed="0" arrived="0" entered="142" left="118" laneChangedFrom="0" laneChangedTo="0"/>
        <edge id="0to2" sampledSeconds="2428.44" traveltime="78.67" density="4.92" occupancy="2.46" waitingTime="0.00" speed="12.53" departed="0" arrived="0" entered="32" left="29" laneChangedFrom="0" laneChangedTo="0"/>
        <edge id="1to0" sampledSeconds="0.00" departed="0" arrived="0" entered="0" left="0" laneChangedFrom="0" laneChangedTo="0"/>
        <edge id="1to2" sampledSeconds="0.00" departed="0" arrived="0" entered="0" left="0" laneChangedFrom="0" laneChangedTo="0"/>
        <edge id="1to3" sampledSeconds="6775.30" traveltime="62.20" density="17.07" occupancy="8.54" waitingTime="0.00" speed="12.76" departed="0" arrived="0" entered="118" left="98" laneChangedFrom="0" laneChangedTo="0"/>
        <edge id="2to0" sampledSeconds="0.00" departed="0" arrived="0" entered="0" left="0" laneChangedFrom="0" laneChangedTo="0"/>
        <edge id="2to4" sampledSeconds="1785.07" traveltime="62.14" density="4.50" occupancy="2.25" waitingTime="0.00" speed="12.77" departed="0" arrived="0" entered="29" left="28" laneChangedFrom="0" laneChangedTo="0"/>
        <edge id="3to4" sampledSeconds="8103.02" traveltime="97.10" density="13.65" occupancy="6.83" waitingTime="60.00" speed="12.23" departed="0" arrived="0" entered="98" left="68" laneChangedFrom="0" laneChangedTo="0"/>
        <edge id="3to5" sampledSeconds="0.00" departed="0" arrived="0" entered="0" left="0" laneChangedFrom="0" laneChangedTo="0"/>
        <edge id="4to2" sampledSeconds="0.00" departed="0" arrived="0" entered="0" left="0" laneChangedFrom="0" laneChangedTo="0"/>
        <edge id="4to3" sampledSeconds="0.00" departed="0" arrived="0" entered="0" left="0" laneChangedFrom="0" laneChangedTo="0"/>
        <edge id="4to5" sampledSeconds="6394.29" traveltime="78.00" density="12.92" occupancy="6.46" waitingTime="0.00" speed="12.69" departed="0" arrived="0" entered="95" left="68" laneChangedFrom="0" laneChangedTo="0"/>
        <edge id="5to-5" sampledSeconds="21.85" traveltime="0.01" density="437.05" occupancy="218.53" waitingTime="0.00" speed="12.76" departed="0" arrived="68" entered="68" left="0" laneChangedFrom="0" laneChangedTo="0"/>
        <edge id="5to3" sampledSeconds="0.00" departed="0" arrived="0" entered="0" left="0" laneChangedFrom="0" laneChangedTo="0"/>
    </interval>
    <interval begin="500.00" end="1000.00" id="2">
        <edge id="-1to0" sampledSeconds="312.57" traveltime="0.04" density="6251.31" occupancy="3125.66" waitingTime="0.00" speed="2.74" departed="171" arrived="0" entered="0" left="171" laneChangedFrom="0" laneChangedTo="0"/>
        <edge id="0to1" sampledSeconds="5365.20" traveltime="78.33" density="10.88" occupancy="5.44" waitingTime="0.00" speed="12.59" departed="0" arrived="0" entered="69" left="67" laneChangedFrom="0" laneChangedTo="0"/>
        <edge id="0to2" sampledSeconds="8154.43" traveltime="78.55" density="16.54" occupancy="8.27" waitingTime="0.00" speed="12.55" departed="0" arrived="0" entered="102" left="105" laneChangedFrom="0" laneChangedTo="0"/>
        <edge id="1to0" sampledSeconds="0.00" departed="0" arrived="0" entered="0" left="0" laneChangedFrom="0" laneChangedTo="0"/>
        <edge id="1to2" sampledSeconds="0.00" departed="0" arrived="0" entered="0" left="0" laneChangedFrom="0" laneChangedTo="0"/>
        <edge id="1to3" sampledSeconds="4602.22" traveltime="62.19" density="11.60" occupancy="5.80" waitingTime="0.00" speed="12.76" departed="0" arrived="0" entered="67" left="83" laneChangedFrom="0" laneChangedTo="0"/>
        <edge id="2to0" sampledSeconds="0.00" departed="0" arrived="0" entered="0" left="0" laneChangedFrom="0" laneChangedTo="0"/>
        <edge id="2to4" sampledSeconds="6065.36" traveltime="62.21" density="15.28" occupancy="7.64" waitingTime="0.00" speed="12.76" departed="0" arrived="0" entered="105" left="87" laneChangedFrom="0" laneChangedTo="0"/>
        <edge id="3to4" sampledSeconds="3408.52" traveltime="97.25" density="5.74" occupancy="2.87" waitingTime="3.00" speed="12.21" departed="0" arrived="0" entered="20" left="50" laneChangedFrom="0" laneChangedTo="0"/>
        <edge id="3to5" sampledSeconds="7200.71" traveltime="113.74" density="14.55" occupancy="7.28" waitingTime="212.00" speed="8.70" departed="0" arrived="0" entered="63" left="63" laneChangedFrom="0" laneChangedTo="0"/>
        <edge id="4to2" sampledSeconds="0.00" departed="0" arrived="0" entered="0" left="0" laneChangedFrom="0" laneChangedTo="0"/>
        <edge id="4to3" sampledSeconds="0.00" departed="0" arrived="0" entered="0" left="0" laneChangedFrom="0" laneChangedTo="0"/>
        <edge id="4to5" sampledSeconds="10849.97" traveltime="77.77" density="21.93" occupancy="10.96" waitingTime="0.00" speed="12.72" departed="0" arrived="0" entered="138" left="139" laneChangedFrom="0" laneChangedTo="0"/>
        <edge id="5to-5" sampledSeconds="64.76" traveltime="0.01" density="1295.14" occupancy="647.57" waitingTime="0.00" speed="10.79" departed="0" arrived="202" entered="202" left="0" laneChangedFrom="0" laneChangedTo="0"/>
        <edge id="5to3" sampledSeconds="0.00" departed="0" arrived="0" entered="0" left="0" laneChangedFrom="0" laneChangedTo="0"/>
    </interval>
    <interval begin="1000.00" end="1500.00" id="3">
        <edge id="-1to0" sampledSeconds="280.27" traveltime="0.04" density="5605.46" occupancy="2802.73" waitingTime="0.00" speed="2.75" departed="154" arrived="0" entered="0" left="154" laneChangedFrom="0" laneChangedTo="0"/>
        <edge id="0to1" sampledSeconds="6125.67" traveltime="78.24" density="12.42" occupancy="6.21" waitingTime="0.00" speed="12.60" departed="0" arrived="0" entered="65" left="91" laneChangedFrom="0" laneChangedTo="0"/>
        <edge id="0to2" sampledSeconds="7105.67" traveltime="78.61" density="14.41" occupancy="7.21" waitingTime="0.00" speed="12.55" departed="0" arrived="0" entered="90" left="88" laneChangedFrom="0" laneChangedTo="0"/>
        <edge id="1to0" sampledSeconds="0.00" departed="0" arrived="0" entered="0" left="0" laneChangedFrom="0" laneChangedTo="0"/>
        <edge id="1to2" sampledSeconds="0.00" departed="0" arrived="0" entered="0" left="0" laneChangedFrom="0" laneChangedTo="0"/>
        <edge id="1to3" sampledSeconds="5724.00" traveltime="62.25" density="14.42" occupancy="7.21" waitingTime="0.00" speed="12.75" departed="0" arrived="0" entered="91" left="90" laneChangedFrom="0" laneChangedTo="0"/>
        <edge id="2to0" sampledSeconds="0.00" departed="0" arrived="0" entered="0" left="0" laneChangedFrom="0" laneChangedTo="0"/>
        <edge id="2to4" sampledSeconds="5515.10" traveltime="62.26" density="13.90" occupancy="6.95" waitingTime="0.00" speed="12.75" departed="0" arrived="0" entered="88" left="90" laneChangedFrom="0" laneChangedTo="0"/>
        <edge id="3to4" sampledSeconds="0.00" departed="0" arrived="0" entered="0" left="0" laneChangedFrom="0" laneChangedTo="0"/>
        <edge id="3to5" sampledSeconds="7090.31" traveltime="80.64" density="14.33" occupancy="7.16" waitingTime="59.00" speed="12.27" departed="0" arrived="0" entered="90" left="84" laneChangedFrom="0" laneChangedTo="0"/>
        <edge id="4to2" sampledSeconds="0.00" departed="0" arrived="0" entered="0" left="0" laneChangedFrom="0" laneChangedTo="0"/>
        <edge id="4to3" sampledSeconds="0.00" departed="0" arrived="0" entered="0" left="0" laneChangedFrom="0" laneChangedTo="0"/>
        <edge id="4to5" sampledSeconds="7060.25" traveltime="77.54" density="14.27" occupancy="7.13" waitingTime="0.00" speed="12.76" departed="0" arrived="0" entered="89" left="93" laneChangedFrom="0" laneChangedTo="0"/>
        <edge id="5to-5" sampledSeconds="55.37" traveltime="0.01" density="1107.38" occupancy="553.69" waitingTime="0.00" speed="9.98" departed="0" arrived="177" entered="177" left="0" laneChangedFrom="0" laneChangedTo="0"/>
        <edge id="5to3" sampledSeconds="0.00" departed="0" arrived="0" entered="0" left="0" laneChangedFrom="0" laneChangedTo="0"/>
    </interval>
    <interval begin="1500.00" end="1646.00" id="4">
        <edge id="-1to0" sampledSeconds="0.00" departed="0" arrived="0" entered="0" left="0" laneChangedFrom="0" laneChangedTo="0"/>
        <edge id="0to1" sampledSeconds="0.00" departed="0" arrived="0" entered="0" left="0" laneChangedFrom="0" laneChangedTo="0"/>
        <edge id="0to2" sampledSeconds="4.69" traveltime="77.47" density="0.03" occupancy="0.02" waitingTime="0.00" speed="12.73" departed="0" arrived="0" entered="0" left="2" laneChangedFrom="0" laneChangedTo="0"/>
        <edge id="1to0" sampledSeconds="0.00" departed="0" arrived="0" entered="0" left="0" laneChangedFrom="0" laneChangedTo="0"/>
        <edge id="1to2" sampledSeconds="0.00" departed="0" arrived="0" entered="0" left="0" laneChangedFrom="0" laneChangedTo="0"/>
        <edge id="1to3" sampledSeconds="176.73" traveltime="61.88" density="1.52" occupancy="0.76" waitingTime="0.00" speed="12.83" departed="0" arrived="0" entered="0" left="5" laneChangedFrom="0" laneChangedTo="0"/>
        <edge id="2to0" sampledSeconds="0.00" departed="0" arrived="0" entered="0" left="0" laneChangedFrom="0" laneChangedTo="0"/>
        <edge id="2to4" sampledSeconds="659.38" traveltime="62.17" density="5.69" occupancy="2.84" waitingTime="0.00" speed="12.77" departed="0" arrived="0" entered="2" left="19" laneChangedFrom="0" laneChangedTo="0"/>
        <edge id="3to4" sampledSeconds="0.00" departed="0" arrived="0" entered="0" left="0" laneChangedFrom="0" laneChangedTo="0"/>
        <edge id="3to5" sampledSeconds="677.34" traveltime="89.76" density="4.69" occupancy="2.34" waitingTime="53.00" speed="11.02" departed="0" arrived="0" entered="5" left="11" laneChangedFrom="0" laneChangedTo="0"/>
        <edge id="4to2" sampledSeconds="0.00" departed="0" arrived="0" entered="0" left="0" laneChangedFrom="0" laneChangedTo="0"/>
        <edge id="4to3" sampledSeconds="0.00" departed="0" arrived="0" entered="0" left="0" laneChangedFrom="0" laneChangedTo="0"/>
        <edge id="4to5" sampledSeconds="2419.42" traveltime="77.59" density="16.75" occupancy="8.37" waitingTime="0.00" speed="12.75" departed="0" arrived="0" entered="20" left="42" laneChangedFrom="0" laneChangedTo="0"/>
        <edge id="5to-5" sampledSeconds="18.15" traveltime="0.01" density="1242.87" occupancy="621.44" waitingTime="0.00" speed="11.00" departed="0" arrived="53" entered="53" left="0" laneChangedFrom="0" laneChangedTo="0"/>
        <edge id="5to3" sampledSeconds="0.00" departed="0" arrived="0" entered="0" left="0" laneChangedFrom="0" laneChangedTo="0"/>
    </interval>
</meandata>
