<?xml version="1.0" encoding="UTF-8"?>

<!-- generated on Tue Jul 26 13:52:42 2016 by SUMO Version 0.27.0
<?xml version="1.0" encoding="UTF-8"?>

<configuration xmlns:xsi="http://www.w3.org/2001/XMLSchema-instance" xsi:noNamespaceSchemaLocation="http://sumo.dlr.de/xsd/sumoConfiguration.xsd">

    <input>
        <net-file value="./../network/simple.net.xml"/>
        <route-files value="./../trips/trip.xml"/>
        <additional-files value="./additional_1to3__0_500.xml"/>
    </input>

    <output>
        <summary-output value="./../output/summary_1to3__0_500.xml"/>
    </output>

    <report>
        <log value="./../output/report_1to3__0_500.xml"/>
    </report>

</configuration>
-->

<meandata xmlns:xsi="http://www.w3.org/2001/XMLSchema-instance" xsi:noNamespaceSchemaLocation="http://sumo.dlr.de/xsd/meandata_file.xsd">
    <interval begin="0.00" end="500.00" id="1">
        <edge id="-1to0" sampledSeconds="315.13" traveltime="0.04" density="6302.65" occupancy="3151.33" waitingTime="0.00" speed="2.70" departed="170" arrived="0" entered="0" left="170" laneChangedFrom="0" laneChangedTo="0"/>
        <edge id="0to1" sampledSeconds="11214.50" traveltime="78.46" density="22.74" occupancy="11.37" waitingTime="0.00" speed="12.57" departed="0" arrived="0" entered="155" left="129" laneChangedFrom="0" laneChangedTo="0"/>
        <edge id="0to2" sampledSeconds="1103.07" traveltime="78.39" density="2.24" occupancy="1.12" waitingTime="0.00" speed="12.58" departed="0" arrived="0" entered="14" left="14" laneChangedFrom="0" laneChangedTo="0"/>
        <edge id="1to0" sampledSeconds="0.00" departed="0" arrived="0" entered="0" left="0" laneChangedFrom="0" laneChangedTo="0"/>
        <edge id="1to2" sampledSeconds="10796.03" traveltime="94.12" density="18.24" occupancy="9.12" waitingTime="0.00" speed="12.58" departed="0" arrived="0" entered="129" left="98" laneChangedFrom="0" laneChangedTo="0"/>
        <edge id="1to3" sampledSeconds="0.00" departed="0" arrived="0" entered="0" left="0" laneChangedFrom="0" laneChangedTo="0"/>
        <edge id="2to0" sampledSeconds="0.00" departed="0" arrived="0" entered="0" left="0" laneChangedFrom="0" laneChangedTo="0"/>
        <edge id="2to4" sampledSeconds="6382.82" traveltime="62.49" density="16.08" occupancy="8.04" waitingTime="0.00" speed="12.70" departed="0" arrived="0" entered="112" left="91" laneChangedFrom="0" laneChangedTo="0"/>
        <edge id="3to4" sampledSeconds="0.00" departed="0" arrived="0" entered="0" left="0" laneChangedFrom="0" laneChangedTo="0"/>
        <edge id="3to5" sampledSeconds="0.00" departed="0" arrived="0" entered="0" left="0" laneChangedFrom="0" laneChangedTo="0"/>
        <edge id="4to2" sampledSeconds="0.00" departed="0" arrived="0" entered="0" left="0" laneChangedFrom="0" laneChangedTo="0"/>
        <edge id="4to3" sampledSeconds="0.00" departed="0" arrived="0" entered="0" left="0" laneChangedFrom="0" laneChangedTo="0"/>
        <edge id="4to5" sampledSeconds="6071.47" traveltime="77.58" density="12.27" occupancy="6.14" waitingTime="0.00" speed="12.76" departed="0" arrived="0" entered="91" left="65" laneChangedFrom="0" laneChangedTo="0"/>
        <edge id="5to-5" sampledSeconds="21.60" traveltime="0.01" density="432.09" occupancy="216.05" waitingTime="0.00" speed="12.77" departed="0" arrived="64" entered="64" left="0" laneChangedFrom="0" laneChangedTo="0"/>
        <edge id="5to3" sampledSeconds="0.00" departed="0" arrived="0" entered="0" left="0" laneChangedFrom="0" laneChangedTo="0"/>
    </interval>
    <interval begin="500.00" end="1000.00" id="2">
        <edge id="-1to0" sampledSeconds="305.83" traveltime="0.04" density="6116.54" occupancy="3058.27" waitingTime="0.00" speed="2.75" departed="169" arrived="0" entered="0" left="169" laneChangedFrom="0" laneChangedTo="0"/>
        <edge id="0to1" sampledSeconds="6344.35" traveltime="78.14" density="12.87" occupancy="6.43" waitingTime="0.00" speed="12.62" departed="0" arrived="0" entered="68" left="94" laneChangedFrom="0" laneChangedTo="0"/>
        <edge id="0to2" sampledSeconds="6958.68" traveltime="78.78" density="14.11" occupancy="7.06" waitingTime="0.00" speed="12.52" departed="0" arrived="0" entered="101" left="75" laneChangedFrom="0" laneChangedTo="0"/>
        <edge id="1to0" sampledSeconds="0.00" departed="0" arrived="0" entered="0" left="0" laneChangedFrom="0" laneChangedTo="0"/>
        <edge id="1to2" sampledSeconds="3884.44" traveltime="94.87" density="6.56" occupancy="3.28" waitingTime="1.00" speed="12.48" departed="0" arrived="0" entered="26" left="57" laneChangedFrom="0" laneChangedTo="0"/>
        <edge id="1to3" sampledSeconds="4259.75" traveltime="62.25" density="10.73" occupancy="5.37" waitingTime="0.00" speed="12.75" departed="0" arrived="0" entered="68" left="68" laneChangedFrom="0" laneChangedTo="0"/>
        <edge id="2to0" sampledSeconds="0.00" departed="0" arrived="0" entered="0" left="0" laneChangedFrom="0" laneChangedTo="0"/>
        <edge id="2to4" sampledSeconds="8265.10" traveltime="62.33" density="20.82" occupancy="10.41" waitingTime="0.00" speed="12.74" departed="0" arrived="0" entered="132" left="132" laneChangedFrom="0" laneChangedTo="0"/>
        <edge id="3to4" sampledSeconds="0.00" departed="0" arrived="0" entered="0" left="0" laneChangedFrom="0" laneChangedTo="0"/>
        <edge id="3to5" sampledSeconds="8448.52" traveltime="123.69" density="17.07" occupancy="8.54" waitingTime="309.00" speed="8.00" departed="0" arrived="0" entered="68" left="66" laneChangedFrom="0" laneChangedTo="0"/>
        <edge id="4to2" sampledSeconds="0.00" departed="0" arrived="0" entered="0" left="0" laneChangedFrom="0" laneChangedTo="0"/>
        <edge id="4to3" sampledSeconds="0.00" departed="0" arrived="0" entered="0" left="0" laneChangedFrom="0" laneChangedTo="0"/>
        <edge id="4to5" sampledSeconds="10299.74" traveltime="77.62" density="20.82" occupancy="10.41" waitingTime="0.00" speed="12.75" departed="0" arrived="0" entered="132" left="132" laneChangedFrom="0" laneChangedTo="0"/>
        <edge id="5to-5" sampledSeconds="69.12" traveltime="0.01" density="1382.39" occupancy="691.19" waitingTime="0.00" speed="10.58" departed="0" arrived="199" entered="199" left="0" laneChangedFrom="0" laneChangedTo="0"/>
        <edge id="5to3" sampledSeconds="0.00" departed="0" arrived="0" entered="0" left="0" laneChangedFrom="0" laneChangedTo="0"/>
    </interval>
    <interval begin="1000.00" end="1500.00" id="3">
        <edge id="-1to0" sampledSeconds="293.66" traveltime="0.04" density="5873.14" occupancy="2936.57" waitingTime="0.00" speed="2.74" departed="161" arrived="0" entered="0" left="161" laneChangedFrom="0" laneChangedTo="0"/>
        <edge id="0to1" sampledSeconds="7394.34" traveltime="78.41" density="15.00" occupancy="7.50" waitingTime="0.00" speed="12.58" departed="0" arrived="0" entered="95" left="90" laneChangedFrom="0" laneChangedTo="0"/>
        <edge id="0to2" sampledSeconds="6202.08" traveltime="78.40" density="12.58" occupancy="6.29" waitingTime="0.00" speed="12.58" departed="0" arrived="0" entered="67" left="86" laneChangedFrom="0" laneChangedTo="0"/>
        <edge id="1to0" sampledSeconds="0.00" departed="0" arrived="0" entered="0" left="0" laneChangedFrom="0" laneChangedTo="0"/>
        <edge id="1to2" sampledSeconds="0.00" departed="0" arrived="0" entered="0" left="0" laneChangedFrom="0" laneChangedTo="0"/>
        <edge id="1to3" sampledSeconds="5396.17" traveltime="62.26" density="13.60" occupancy="6.80" waitingTime="0.00" speed="12.75" departed="0" arrived="0" entered="90" left="82" laneChangedFrom="0" laneChangedTo="0"/>
        <edge id="2to0" sampledSeconds="0.00" departed="0" arrived="0" entered="0" left="0" laneChangedFrom="0" laneChangedTo="0"/>
        <edge id="2to4" sampledSeconds="5595.21" traveltime="62.23" density="14.10" occupancy="7.05" waitingTime="0.00" speed="12.76" departed="0" arrived="0" entered="86" left="93" laneChangedFrom="0" laneChangedTo="0"/>
        <edge id="3to4" sampledSeconds="0.00" departed="0" arrived="0" entered="0" left="0" laneChangedFrom="0" laneChangedTo="0"/>
        <edge id="3to5" sampledSeconds="6102.67" traveltime="79.45" density="12.33" occupancy="6.17" waitingTime="13.00" speed="12.46" departed="0" arrived="0" entered="81" left="73" laneChangedFrom="0" laneChangedTo="0"/>
        <edge id="4to2" sampledSeconds="0.00" departed="0" arrived="0" entered="0" left="0" laneChangedFrom="0" laneChangedTo="0"/>
        <edge id="4to3" sampledSeconds="0.00" departed="0" arrived="0" entered="0" left="0" laneChangedFrom="0" laneChangedTo="0"/>
        <edge id="4to5" sampledSeconds="7525.20" traveltime="77.58" density="15.21" occupancy="7.60" waitingTime="0.00" speed="12.76" departed="0" arrived="0" entered="93" left="100" laneChangedFrom="0" laneChangedTo="0"/>
        <edge id="5to-5" sampledSeconds="46.45" traveltime="0.01" density="929.09" occupancy="464.55" waitingTime="0.00" speed="10.62" departed="0" arrived="173" entered="173" left="0" laneChangedFrom="0" laneChangedTo="0"/>
        <edge id="5to3" sampledSeconds="0.00" departed="0" arrived="0" entered="0" left="0" laneChangedFrom="0" laneChangedTo="0"/>
    </interval>
    <interval begin="1500.00" end="1673.00" id="4">
        <edge id="-1to0" sampledSeconds="0.00" departed="0" arrived="0" entered="0" left="0" laneChangedFrom="0" laneChangedTo="0"/>
        <edge id="0to1" sampledSeconds="91.60" traveltime="77.45" density="0.54" occupancy="0.27" waitingTime="0.00" speed="12.73" departed="0" arrived="0" entered="0" left="5" laneChangedFrom="0" laneChangedTo="0"/>
        <edge id="0to2" sampledSeconds="108.89" traveltime="76.83" density="0.64" occupancy="0.32" waitingTime="0.00" speed="12.84" departed="0" arrived="0" entered="0" left="7" laneChangedFrom="0" laneChangedTo="0"/>
        <edge id="1to0" sampledSeconds="0.00" departed="0" arrived="0" entered="0" left="0" laneChangedFrom="0" laneChangedTo="0"/>
        <edge id="1to2" sampledSeconds="0.00" departed="0" arrived="0" entered="0" left="0" laneChangedFrom="0" laneChangedTo="0"/>
        <edge id="1to3" sampledSeconds="555.11" traveltime="62.16" density="4.04" occupancy="2.02" waitingTime="0.00" speed="12.77" departed="0" arrived="0" entered="5" left="13" laneChangedFrom="0" laneChangedTo="0"/>
        <edge id="2to0" sampledSeconds="0.00" departed="0" arrived="0" entered="0" left="0" laneChangedFrom="0" laneChangedTo="0"/>
        <edge id="2to4" sampledSeconds="898.97" traveltime="62.17" density="6.55" occupancy="3.27" waitingTime="0.00" speed="12.77" departed="0" arrived="0" entered="7" left="21" laneChangedFrom="0" laneChangedTo="0"/>
        <edge id="3to4" sampledSeconds="0.00" departed="0" arrived="0" entered="0" left="0" laneChangedFrom="0" laneChangedTo="0"/>
        <edge id="3to5" sampledSeconds="1524.77" traveltime="81.56" density="8.91" occupancy="4.45" waitingTime="22.00" speed="12.13" departed="0" arrived="0" entered="14" left="24" laneChangedFrom="0" laneChangedTo="0"/>
        <edge id="4to2" sampledSeconds="0.00" departed="0" arrived="0" entered="0" left="0" laneChangedFrom="0" laneChangedTo="0"/>
        <edge id="4to3" sampledSeconds="0.00" departed="0" arrived="0" entered="0" left="0" laneChangedFrom="0" laneChangedTo="0"/>
        <edge id="4to5" sampledSeconds="2384.05" traveltime="77.57" density="13.93" occupancy="6.96" waitingTime="0.00" speed="12.76" departed="0" arrived="0" entered="21" left="40" laneChangedFrom="0" laneChangedTo="0"/>
        <edge id="5to-5" sampledSeconds="16.57" traveltime="0.01" density="957.92" occupancy="478.96" waitingTime="0.00" speed="10.76" departed="0" arrived="64" entered="64" left="0" laneChangedFrom="0" laneChangedTo="0"/>
        <edge id="5to3" sampledSeconds="0.00" departed="0" arrived="0" entered="0" left="0" laneChangedFrom="0" laneChangedTo="0"/>
    </interval>
</meandata>
