<?xml version="1.0" encoding="UTF-8"?>

<!-- generated on 09/07/16 20:09:41 by SUMO Version 0.27.1
<?xml version="1.0" encoding="UTF-8"?>

<configuration xmlns:xsi="http://www.w3.org/2001/XMLSchema-instance" xsi:noNamespaceSchemaLocation="http://sumo.dlr.de/xsd/sumoConfiguration.xsd">

    <input>
        <net-file value="./../network/simple.net.xml"/>
        <route-files value="./../trips/trip.xml"/>
        <additional-files value="./additional_2to4__500_1000.xml"/>
    </input>

    <output>
        <summary-output value="./../output/summary_2to4__500_1000.xml"/>
    </output>

    <report>
        <log value="./../output/report_2to4__500_1000.xml"/>
    </report>

</configuration>
-->

<meandata xmlns:xsi="http://www.w3.org/2001/XMLSchema-instance" xsi:noNamespaceSchemaLocation="http://sumo.dlr.de/xsd/meandata_file.xsd">
    <interval begin="0.00" end="500.00" id="1">
        <edge id="-1to0" sampledSeconds="330.29" traveltime="0.04" density="6605.70" occupancy="3302.85" waitingTime="1.00" speed="2.71" departed="179" arrived="0" entered="0" left="179" laneChangedFrom="0" laneChangedTo="0"/>
        <edge id="0to1" sampledSeconds="5351.58" traveltime="78.37" density="10.85" occupancy="5.43" waitingTime="0.00" speed="12.58" departed="0" arrived="0" entered="70" left="66" laneChangedFrom="0" laneChangedTo="0"/>
        <edge id="0to2" sampledSeconds="7635.50" traveltime="78.75" density="15.49" occupancy="7.74" waitingTime="0.00" speed="12.52" departed="0" arrived="0" entered="109" left="85" laneChangedFrom="0" laneChangedTo="0"/>
        <edge id="1to0" sampledSeconds="0.00" departed="0" arrived="0" entered="0" left="0" laneChangedFrom="0" laneChangedTo="0"/>
        <edge id="1to2" sampledSeconds="0.00" departed="0" arrived="0" entered="0" left="0" laneChangedFrom="0" laneChangedTo="0"/>
        <edge id="1to3" sampledSeconds="4002.75" traveltime="62.21" density="10.09" occupancy="5.04" waitingTime="0.00" speed="12.76" departed="0" arrived="0" entered="66" left="61" laneChangedFrom="0" laneChangedTo="0"/>
        <edge id="2to0" sampledSeconds="0.00" departed="0" arrived="0" entered="0" left="0" laneChangedFrom="0" laneChangedTo="0"/>
        <edge id="2to4" sampledSeconds="4732.84" traveltime="62.22" density="11.92" occupancy="5.96" waitingTime="0.00" speed="12.76" departed="0" arrived="0" entered="85" left="68" laneChangedFrom="0" laneChangedTo="0"/>
        <edge id="3to4" sampledSeconds="0.00" departed="0" arrived="0" entered="0" left="0" laneChangedFrom="0" laneChangedTo="0"/>
        <edge id="3to5" sampledSeconds="4913.75" traveltime="81.45" density="9.93" occupancy="4.97" waitingTime="51.00" speed="12.15" departed="0" arrived="0" entered="61" left="55" laneChangedFrom="0" laneChangedTo="0"/>
        <edge id="4to2" sampledSeconds="0.00" departed="0" arrived="0" entered="0" left="0" laneChangedFrom="0" laneChangedTo="0"/>
        <edge id="4to3" sampledSeconds="0.00" departed="0" arrived="0" entered="0" left="0" laneChangedFrom="0" laneChangedTo="0"/>
        <edge id="4to5" sampledSeconds="4291.19" traveltime="77.57" density="8.67" occupancy="4.34" waitingTime="0.00" speed="12.76" departed="0" arrived="0" entered="68" left="45" laneChangedFrom="0" laneChangedTo="0"/>
        <edge id="5to-5" sampledSeconds="34.40" traveltime="0.01" density="687.96" occupancy="343.98" waitingTime="0.00" speed="8.72" departed="0" arrived="100" entered="100" left="0" laneChangedFrom="0" laneChangedTo="0"/>
        <edge id="5to3" sampledSeconds="0.00" departed="0" arrived="0" entered="0" left="0" laneChangedFrom="0" laneChangedTo="0"/>
    </interval>
    <interval begin="0.00" end="500.00" id="5">
        <edge id="-1to0" sampledSeconds="330.29" CO_abs="8941.322005" CO2_abs="651113.700505" HC_abs="248.708801" PMx_abs="70.608492" NOx_abs="1297.175062" fuel_abs="259.588866" electricity_abs="0"
            CO_normed="643775.184343" CO2_normed="46880186.436391" HC_normed="17907.033678" PMx_normed="5083.811416" NOx_normed="93396.604437" fuel_normed="18690.398379" electricity_normed="0"
            traveltime="0.04" CO_perVeh="0.999030" CO2_perVeh="72.750134" HC_perVeh="0.027789" PMx_perVeh="0.007889" NOx_perVeh="0.144936" fuel_perVeh="0.029004" electricity_perVeh="0"/>
        <edge id="0to1" sampledSeconds="5351.58" CO_abs="58833.237356" CO2_abs="8752970.639741" HC_abs="2119.402950" PMx_abs="721.328400" NOx_abs="16465.657492" fuel_abs="3489.677110" electricity_abs="0"
            CO_normed="429.539845" CO2_normed="63905.197487" HC_normed="15.473703" PMx_normed="5.266399" NOx_normed="120.215312" fuel_normed="25.478036" electricity_normed="0"
            traveltime="78.37" CO_perVeh="861.610202" CO2_perVeh="128186.874335" HC_perVeh="31.038564" PMx_perVeh="10.563823" NOx_perVeh="241.138838" fuel_perVeh="51.106170" electricity_perVeh="0"/>
        <edge id="0to2" sampledSeconds="7635.50" CO_abs="87190.733757" CO2_abs="12632053.803846" HC_abs="3087.381639" PMx_abs="1052.867245" NOx_abs="23835.635492" fuel_abs="5036.208815" electricity_abs="0"
            CO_normed="636.577145" CO2_normed="92226.276796" HC_normed="22.540888" PMx_normed="7.686955" NOx_normed="174.023318" fuel_normed="36.769222" electricity_normed="0"
            traveltime="78.75" CO_perVeh="899.208261" CO2_perVeh="130275.852023" HC_perVeh="31.840529" PMx_perVeh="10.858343" NOx_perVeh="245.819704" fuel_perVeh="51.939012" electricity_perVeh="0"/>
        <edge id="1to0" sampledSeconds="0.00" CO_abs="0" CO2_abs="0" HC_abs="0" PMx_abs="0" NOx_abs="0" fuel_abs="0" electricity_abs="0"
            CO_normed="0" CO2_normed="0" HC_normed="0" PMx_normed="0" NOx_normed="0" fuel_normed="0" electricity_normed="0"/>
        <edge id="1to2" sampledSeconds="0.00" CO_abs="0" CO2_abs="0" HC_abs="0" PMx_abs="0" NOx_abs="0" fuel_abs="0" electricity_abs="0"
            CO_normed="0" CO2_normed="0" HC_normed="0" PMx_normed="0" NOx_normed="0" fuel_normed="0" electricity_normed="0"/>
        <edge id="1to3" sampledSeconds="4002.75" CO_abs="27318.299974" CO2_abs="5602843.411423" HC_abs="1245.884322" PMx_abs="405.293117" NOx_abs="10181.329874" fuel_abs="2233.769447" electricity_abs="0"
            CO_normed="247.785034" CO2_normed="50819.441373" HC_normed="11.300538" PMx_normed="3.676128" NOx_normed="92.347663" fuel_normed="20.260947" electricity_normed="0"
            traveltime="62.21" CO_perVeh="424.577120" CO2_perVeh="87078.592825" HC_perVeh="19.363356" PMx_perVeh="6.299008" NOx_perVeh="158.236776" fuel_perVeh="34.716926" electricity_perVeh="0"/>
        <edge id="2to0" sampledSeconds="0.00" CO_abs="0" CO2_abs="0" HC_abs="0" PMx_abs="0" NOx_abs="0" fuel_abs="0" electricity_abs="0"
            CO_normed="0" CO2_normed="0" HC_normed="0" PMx_normed="0" NOx_normed="0" fuel_normed="0" electricity_normed="0"/>
        <edge id="2to4" sampledSeconds="4732.84" CO_abs="32711.676726" CO2_abs="6736684.368118" HC_abs="1495.975483" PMx_abs="487.269414" NOx_abs="12236.616810" fuel_abs="2685.814797" electricity_abs="0"
            CO_normed="296.704551" CO2_normed="61103.713090" HC_normed="13.568939" PMx_normed="4.419677" NOx_normed="110.989722" fuel_normed="24.361132" electricity_normed="0"
            traveltime="62.22" CO_perVeh="430.033914" CO2_perVeh="88561.731998" HC_perVeh="19.666378" PMx_perVeh="6.405736" NOx_perVeh="160.864888" fuel_perVeh="35.308231" electricity_perVeh="0"/>
        <edge id="3to4" sampledSeconds="0.00" CO_abs="0" CO2_abs="0" HC_abs="0" PMx_abs="0" NOx_abs="0" fuel_abs="0" electricity_abs="0"
            CO_normed="0" CO2_normed="0" HC_normed="0" PMx_normed="0" NOx_normed="0" fuel_normed="0" electricity_normed="0"/>
        <edge id="3to5" sampledSeconds="4913.75" CO_abs="34508.735864" CO2_abs="6626060.558174" HC_abs="1506.940130" PMx_abs="489.948425" NOx_abs="12096.777807" fuel_abs="2641.710594" electricity_abs="0"
            CO_normed="251.074069" CO2_normed="48209.009720" HC_normed="10.963994" PMx_normed="3.564702" NOx_normed="88.012126" fuel_normed="19.220206" electricity_normed="0"
            traveltime="81.45" CO_perVeh="572.018651" CO2_perVeh="109833.934110" HC_perVeh="24.979120" PMx_perVeh="8.121411" NOx_perVeh="200.516836" fuel_perVeh="43.789136" electricity_perVeh="0"/>
        <edge id="4to2" sampledSeconds="0.00" CO_abs="0" CO2_abs="0" HC_abs="0" PMx_abs="0" NOx_abs="0" fuel_abs="0" electricity_abs="0"
            CO_normed="0" CO2_normed="0" HC_normed="0" PMx_normed="0" NOx_normed="0" fuel_normed="0" electricity_normed="0"/>
        <edge id="4to3" sampledSeconds="0.00" CO_abs="0" CO2_abs="0" HC_abs="0" PMx_abs="0" NOx_abs="0" fuel_abs="0" electricity_abs="0"
            CO_normed="0" CO2_normed="0" HC_normed="0" PMx_normed="0" NOx_normed="0" fuel_normed="0" electricity_normed="0"/>
        <edge id="4to5" sampledSeconds="4291.19" CO_abs="29084.164870" CO2_abs="6071220.922044" HC_abs="1344.346285" PMx_abs="437.481088" NOx_abs="11014.962678" fuel_abs="2420.504537" electricity_abs="0"
            CO_normed="211.606697" CO2_normed="44172.181324" HC_normed="9.781016" PMx_normed="3.182967" NOx_normed="80.141200" fuel_normed="17.610785" electricity_normed="0"
            traveltime="77.57" CO_perVeh="525.775079" CO2_perVeh="109753.767108" HC_perVeh="24.302701" PMx_perVeh="7.908656" NOx_perVeh="199.125294" fuel_perVeh="43.757177" electricity_perVeh="0"/>
        <edge id="5to-5" sampledSeconds="34.40" CO_abs="1185.424827" CO2_abs="92347.689521" HC_abs="29.770461" PMx_abs="10.554338" NOx_abs="190.847744" fuel_abs="36.817596" electricity_abs="0"
            CO_normed="85350.587552" CO2_normed="6649033.645529" HC_normed="2143.473161" PMx_normed="759.912328" NOx_normed="13741.037579" fuel_normed="2650.866888" electricity_normed="0"
            traveltime="0.01" CO_perVeh="0.395425" CO2_perVeh="30.804610" HC_perVeh="0.009931" PMx_perVeh="0.003521" NOx_perVeh="0.063661" fuel_perVeh="0.012281" electricity_perVeh="0"/>
        <edge id="5to3" sampledSeconds="0.00" CO_abs="0" CO2_abs="0" HC_abs="0" PMx_abs="0" NOx_abs="0" fuel_abs="0" electricity_abs="0"
            CO_normed="0" CO2_normed="0" HC_normed="0" PMx_normed="0" NOx_normed="0" fuel_normed="0" electricity_normed="0"/>
    </interval>
    <interval begin="500.00" end="1000.00" id="2">
        <edge id="-1to0" sampledSeconds="307.09" traveltime="0.04" density="6141.72" occupancy="3070.86" waitingTime="2.00" speed="2.72" departed="168" arrived="0" entered="0" left="167" laneChangedFrom="0" laneChangedTo="0"/>
        <edge id="0to1" sampledSeconds="9892.32" traveltime="77.81" density="20.06" occupancy="10.03" waitingTime="0.00" speed="12.67" departed="0" arrived="0" entered="137" left="116" laneChangedFrom="0" laneChangedTo="0"/>
        <edge id="0to2" sampledSeconds="12696.13" traveltime="79.94" density="25.75" occupancy="12.87" waitingTime="0.00" speed="12.34" departed="0" arrived="0" entered="159" left="156" laneChangedFrom="0" laneChangedTo="0"/>
        <edge id="1to0" sampledSeconds="0.00" departed="0" arrived="0" entered="0" left="0" laneChangedFrom="0" laneChangedTo="0"/>
        <edge id="1to2" sampledSeconds="0.00" departed="0" arrived="0" entered="0" left="0" laneChangedFrom="0" laneChangedTo="0"/>
        <edge id="1to3" sampledSeconds="6709.14" traveltime="62.22" density="16.90" occupancy="8.45" waitingTime="0.00" speed="12.76" departed="0" arrived="0" entered="116" left="100" laneChangedFrom="0" laneChangedTo="0"/>
        <edge id="2to0" sampledSeconds="11406.59" traveltime="79.43" density="23.13" occupancy="11.57" waitingTime="1.00" speed="12.42" departed="0" arrived="0" entered="156" left="129" laneChangedFrom="0" laneChangedTo="0"/>
        <edge id="2to4" sampledSeconds="588.40" traveltime="62.15" density="1.48" occupancy="0.74" waitingTime="0.00" speed="12.77" departed="0" arrived="0" entered="0" left="17" laneChangedFrom="0" laneChangedTo="0"/>
        <edge id="3to4" sampledSeconds="0.00" departed="0" arrived="0" entered="0" left="0" laneChangedFrom="0" laneChangedTo="0"/>
        <edge id="3to5" sampledSeconds="7055.95" traveltime="79.76" density="14.26" occupancy="7.13" waitingTime="41.00" speed="12.41" departed="0" arrived="0" entered="99" left="82" laneChangedFrom="0" laneChangedTo="0"/>
        <edge id="4to2" sampledSeconds="0.00" departed="0" arrived="0" entered="0" left="0" laneChangedFrom="0" laneChangedTo="0"/>
        <edge id="4to3" sampledSeconds="0.00" departed="0" arrived="0" entered="0" left="0" laneChangedFrom="0" laneChangedTo="0"/>
        <edge id="4to5" sampledSeconds="2335.97" traveltime="77.58" density="4.72" occupancy="2.36" waitingTime="0.00" speed="12.76" departed="0" arrived="0" entered="17" left="40" laneChangedFrom="0" laneChangedTo="0"/>
        <edge id="5to-5" sampledSeconds="33.83" traveltime="0.01" density="676.59" occupancy="338.30" waitingTime="0.00" speed="9.40" departed="0" arrived="122" entered="122" left="0" laneChangedFrom="0" laneChangedTo="0"/>
        <edge id="5to3" sampledSeconds="0.00" departed="0" arrived="0" entered="0" left="0" laneChangedFrom="0" laneChangedTo="0"/>
    </interval>
    <interval begin="500.00" end="1000.00" id="6">
        <edge id="-1to0" sampledSeconds="307.09" CO_abs="8264.648125" CO2_abs="604023.551768" HC_abs="230.508083" PMx_abs="65.251062" NOx_abs="1201.978139" fuel_abs="240.814759" electricity_abs="0"
            CO_normed="595054.665001" CO2_normed="43489695.727263" HC_normed="16596.581961" PMx_normed="4698.076494" NOx_normed="86542.425973" fuel_normed="17338.662679" electricity_normed="0"
            traveltime="0.04" CO_perVeh="0.989778" CO2_perVeh="72.338150" HC_perVeh="0.027606" PMx_perVeh="0.007814" NOx_perVeh="0.143949" fuel_perVeh="0.028840" electricity_perVeh="0"/>
        <edge id="0to1" sampledSeconds="9892.32" CO_abs="98801.377792" CO2_abs="15764668.235505" HC_abs="3733.534464" PMx_abs="1261.765666" NOx_abs="29420.935855" fuel_abs="6285.135334" electricity_abs="0"
            CO_normed="721.346137" CO2_normed="115097.408455" HC_normed="27.258432" PMx_normed="9.212116" NOx_normed="214.801442" fuel_normed="45.887600" electricity_normed="0"
            traveltime="77.81" CO_perVeh="777.187962" CO2_perVeh="124007.485064" HC_perVeh="29.368599" PMx_perVeh="9.925257" NOx_perVeh="231.429943" fuel_perVeh="49.439913" electricity_perVeh="0"/>
        <edge id="0to2" sampledSeconds="12696.13" CO_abs="139044.166823" CO2_abs="20163046.456171" HC_abs="4933.000998" PMx_abs="1682.189943" NOx_abs="38031.167687" fuel_abs="8038.701618" electricity_abs="0"
            CO_normed="1015.157631" CO2_normed="147209.846664" HC_normed="36.015704" PMx_normed="12.281622" NOx_normed="277.664507" fuel_normed="58.690339" electricity_normed="0"
            traveltime="79.94" CO_perVeh="875.511234" CO2_perVeh="126959.469636" HC_perVeh="31.061337" PMx_perVeh="10.592147" NOx_perVeh="239.468618" fuel_perVeh="50.616820" electricity_perVeh="0"/>
        <edge id="1to0" sampledSeconds="0.00" CO_abs="0" CO2_abs="0" HC_abs="0" PMx_abs="0" NOx_abs="0" fuel_abs="0" electricity_abs="0"
            CO_normed="0" CO2_normed="0" HC_normed="0" PMx_normed="0" NOx_normed="0" fuel_normed="0" electricity_normed="0"/>
        <edge id="1to2" sampledSeconds="0.00" CO_abs="0" CO2_abs="0" HC_abs="0" PMx_abs="0" NOx_abs="0" fuel_abs="0" electricity_abs="0"
            CO_normed="0" CO2_normed="0" HC_normed="0" PMx_normed="0" NOx_normed="0" fuel_normed="0" electricity_normed="0"/>
        <edge id="1to3" sampledSeconds="6709.14" CO_abs="46717.654473" CO2_abs="9466292.555711" HC_abs="2109.528246" PMx_abs="688.278985" NOx_abs="17221.550127" fuel_abs="3774.068533" electricity_abs="0"
            CO_normed="423.742898" CO2_normed="85862.063997" HC_normed="19.134043" PMx_normed="6.242893" NOx_normed="156.204536" fuel_normed="34.231914" electricity_normed="0"
            traveltime="62.22" CO_perVeh="433.256985" CO2_perVeh="87789.881983" HC_perVeh="19.563650" PMx_perVeh="6.383062" NOx_perVeh="159.711719" fuel_perVeh="35.000506" electricity_perVeh="0"/>
        <edge id="2to0" sampledSeconds="11406.59" CO_abs="121256.530032" CO2_abs="18097323.691743" HC_abs="4380.341012" PMx_abs="1490.943362" NOx_abs="34031.236452" fuel_abs="7215.129440" electricity_abs="0"
            CO_normed="885.290585" CO2_normed="132128.061673" HC_normed="31.980749" PMx_normed="10.885336" NOx_normed="248.461120" fuel_normed="52.677461" electricity_normed="0"
            traveltime="79.43" CO_perVeh="844.387356" CO2_perVeh="126023.326714" HC_perVeh="30.503137" PMx_perVeh="10.382399" NOx_perVeh="236.981429" fuel_perVeh="50.243596" electricity_perVeh="0"/>
        <edge id="2to4" sampledSeconds="588.40" CO_abs="3966.765771" CO2_abs="809104.764911" HC_abs="180.061395" PMx_abs="58.505853" NOx_abs="1470.856105" fuel_abs="322.577909" electricity_abs="0"
            CO_normed="35.979735" CO2_normed="7338.818729" HC_normed="1.633210" PMx_normed="0.530665" NOx_normed="13.341098" fuel_normed="2.925877" electricity_normed="0"
            traveltime="62.15" CO_perVeh="418.977403" CO2_perVeh="85459.195923" HC_perVeh="19.018430" PMx_perVeh="6.179500" NOx_perVeh="155.354641" fuel_perVeh="34.071297" electricity_perVeh="0"/>
        <edge id="3to4" sampledSeconds="0.00" CO_abs="0" CO2_abs="0" HC_abs="0" PMx_abs="0" NOx_abs="0" fuel_abs="0" electricity_abs="0"
            CO_normed="0" CO2_normed="0" HC_normed="0" PMx_normed="0" NOx_normed="0" fuel_normed="0" electricity_normed="0"/>
        <edge id="3to5" sampledSeconds="7055.95" CO_abs="51259.199589" CO2_abs="9805211.227240" HC_abs="2224.299758" PMx_abs="727.864190" NOx_abs="17924.610142" fuel_abs="3909.190112" electricity_abs="0"
            CO_normed="372.944864" CO2_normed="71339.451128" HC_normed="16.183264" PMx_normed="5.295697" NOx_normed="130.413493" fuel_normed="28.441965" electricity_normed="0"
            traveltime="79.76" CO_perVeh="579.455023" CO2_perVeh="110842.130544" HC_perVeh="25.144397" PMx_perVeh="8.228075" NOx_perVeh="202.627147" fuel_perVeh="44.191089" electricity_perVeh="0"/>
        <edge id="4to2" sampledSeconds="0.00" CO_abs="0" CO2_abs="0" HC_abs="0" PMx_abs="0" NOx_abs="0" fuel_abs="0" electricity_abs="0"
            CO_normed="0" CO2_normed="0" HC_normed="0" PMx_normed="0" NOx_normed="0" fuel_normed="0" electricity_normed="0"/>
        <edge id="4to3" sampledSeconds="0.00" CO_abs="0" CO2_abs="0" HC_abs="0" PMx_abs="0" NOx_abs="0" fuel_abs="0" electricity_abs="0"
            CO_normed="0" CO2_normed="0" HC_normed="0" PMx_normed="0" NOx_normed="0" fuel_normed="0" electricity_normed="0"/>
        <edge id="4to5" sampledSeconds="2335.97" CO_abs="16515.251379" CO2_abs="3349218.840932" HC_abs="745.988332" PMx_abs="243.792089" NOx_abs="6092.621906" fuel_abs="1335.283202" electricity_abs="0"
            CO_normed="120.159468" CO2_normed="24367.800783" HC_normed="5.427563" PMx_normed="1.773750" NOx_normed="44.327888" fuel_normed="9.715076" electricity_normed="0"
            traveltime="77.58" CO_perVeh="548.468124" CO2_perVeh="111226.873349" HC_perVeh="24.774120" PMx_perVeh="8.096285" NOx_perVeh="202.334729" fuel_perVeh="44.344482" electricity_perVeh="0"/>
        <edge id="5to-5" sampledSeconds="33.83" CO_abs="1515.618539" CO2_abs="113520.693598" HC_abs="36.366196" PMx_abs="13.535124" NOx_abs="238.565452" fuel_abs="45.258945" electricity_abs="0"
            CO_normed="109124.534828" CO2_normed="8173489.939089" HC_normed="2618.366103" PMx_normed="974.528942" NOx_normed="17176.712559" fuel_normed="3258.644067" electricity_normed="0"
            traveltime="0.01" CO_perVeh="0.476842" CO2_perVeh="35.715774" HC_perVeh="0.011441" PMx_perVeh="0.004258" NOx_perVeh="0.075057" fuel_perVeh="0.014239" electricity_perVeh="0"/>
        <edge id="5to3" sampledSeconds="0.00" CO_abs="0" CO2_abs="0" HC_abs="0" PMx_abs="0" NOx_abs="0" fuel_abs="0" electricity_abs="0"
            CO_normed="0" CO2_normed="0" HC_normed="0" PMx_normed="0" NOx_normed="0" fuel_normed="0" electricity_normed="0"/>
    </interval>
    <interval begin="1000.00" end="1500.00" id="3">
        <edge id="-1to0" sampledSeconds="279.01" traveltime="0.04" density="5580.22" occupancy="2790.11" waitingTime="0.00" speed="2.76" departed="153" arrived="0" entered="0" left="154" laneChangedFrom="0" laneChangedTo="0"/>
        <edge id="0to1" sampledSeconds="5833.91" traveltime="77.83" density="11.83" occupancy="5.92" waitingTime="0.00" speed="12.67" departed="0" arrived="0" entered="62" left="87" laneChangedFrom="0" laneChangedTo="0"/>
        <edge id="0to2" sampledSeconds="12403.47" traveltime="78.77" density="25.15" occupancy="12.58" waitingTime="0.00" speed="12.52" departed="0" arrived="0" entered="146" left="161" laneChangedFrom="0" laneChangedTo="0"/>
        <edge id="1to0" sampledSeconds="0.00" departed="0" arrived="0" entered="0" left="0" laneChangedFrom="0" laneChangedTo="0"/>
        <edge id="1to2" sampledSeconds="0.00" departed="0" arrived="0" entered="0" left="0" laneChangedFrom="0" laneChangedTo="0"/>
        <edge id="1to3" sampledSeconds="6133.17" traveltime="62.25" density="15.45" occupancy="7.73" waitingTime="0.00" speed="12.75" departed="0" arrived="0" entered="87" left="108" laneChangedFrom="0" laneChangedTo="0"/>
        <edge id="2to0" sampledSeconds="3228.16" traveltime="80.05" density="6.55" occupancy="3.27" waitingTime="0.00" speed="12.32" departed="0" arrived="0" entered="27" left="54" laneChangedFrom="0" laneChangedTo="0"/>
        <edge id="2to4" sampledSeconds="7718.67" traveltime="62.20" density="19.45" occupancy="9.72" waitingTime="0.00" speed="12.76" departed="0" arrived="0" entered="134" left="113" laneChangedFrom="0" laneChangedTo="0"/>
        <edge id="3to4" sampledSeconds="0.00" departed="0" arrived="0" entered="0" left="0" laneChangedFrom="0" laneChangedTo="0"/>
        <edge id="3to5" sampledSeconds="18240.34" traveltime="158.52" density="36.86" occupancy="18.43" waitingTime="1582.00" speed="6.24" departed="0" arrived="0" entered="109" left="94" laneChangedFrom="0" laneChangedTo="0"/>
        <edge id="4to2" sampledSeconds="0.00" departed="0" arrived="0" entered="0" left="0" laneChangedFrom="0" laneChangedTo="0"/>
        <edge id="4to3" sampledSeconds="0.00" departed="0" arrived="0" entered="0" left="0" laneChangedFrom="0" laneChangedTo="0"/>
        <edge id="4to5" sampledSeconds="7780.05" traveltime="77.54" density="15.72" occupancy="7.86" waitingTime="0.00" speed="12.76" departed="0" arrived="0" entered="113" left="87" laneChangedFrom="0" laneChangedTo="0"/>
        <edge id="5to-5" sampledSeconds="53.97" traveltime="0.01" density="1079.48" occupancy="539.74" waitingTime="0.00" speed="9.70" departed="0" arrived="181" entered="181" left="0" laneChangedFrom="0" laneChangedTo="0"/>
        <edge id="5to3" sampledSeconds="0.00" departed="0" arrived="0" entered="0" left="0" laneChangedFrom="0" laneChangedTo="0"/>
    </interval>
    <interval begin="1000.00" end="1500.00" id="7">
        <edge id="-1to0" sampledSeconds="279.01" CO_abs="7581.911349" CO2_abs="553935.853014" HC_abs="210.883984" PMx_abs="59.988182" NOx_abs="1103.534407" fuel_abs="220.845576" electricity_abs="0"
            CO_normed="545897.617155" CO2_normed="39883381.417004" HC_normed="15183.646848" PMx_normed="4319.149103" NOx_normed="79454.477300" fuel_normed="15900.881471" electricity_normed="0"
            traveltime="0.04" CO_perVeh="0.984664" CO2_perVeh="71.939721" HC_perVeh="0.027388" PMx_perVeh="0.007791" NOx_perVeh="0.143316" fuel_perVeh="0.028681" electricity_perVeh="0"/>
        <edge id="0to1" sampledSeconds="5833.91" CO_abs="54601.547838" CO2_abs="8959323.855092" HC_abs="2106.626590" PMx_abs="708.233396" NOx_abs="16663.971277" fuel_abs="3571.947276" electricity_abs="0"
            CO_normed="398.644396" CO2_normed="65411.776627" HC_normed="15.380423" PMx_normed="5.170793" NOx_normed="121.663195" fuel_normed="26.078689" electricity_normed="0"
            traveltime="77.83" CO_perVeh="728.465277" CO2_perVeh="119530.610265" HC_perVeh="28.105510" PMx_perVeh="9.448879" NOx_perVeh="222.321984" fuel_perVeh="47.655051" electricity_perVeh="0"/>
        <edge id="0to2" sampledSeconds="12403.47" CO_abs="132953.311806" CO2_abs="19838565.207924" HC_abs="4805.818552" PMx_abs="1631.730175" NOx_abs="37296.409996" fuel_abs="7909.336114" electricity_abs="0"
            CO_normed="970.688466" CO2_normed="144840.818010" HC_normed="35.087149" PMx_normed="11.913217" NOx_normed="272.300062" fuel_normed="57.745845" electricity_normed="0"
            traveltime="78.77" CO_perVeh="844.345772" CO2_perVeh="125988.652951" HC_perVeh="30.520282" PMx_perVeh="10.362619" NOx_perVeh="236.858080" fuel_perVeh="50.229772" electricity_perVeh="0"/>
        <edge id="1to0" sampledSeconds="0.00" CO_abs="0" CO2_abs="0" HC_abs="0" PMx_abs="0" NOx_abs="0" fuel_abs="0" electricity_abs="0"
            CO_normed="0" CO2_normed="0" HC_normed="0" PMx_normed="0" NOx_normed="0" fuel_normed="0" electricity_normed="0"/>
        <edge id="1to2" sampledSeconds="0.00" CO_abs="0" CO2_abs="0" HC_abs="0" PMx_abs="0" NOx_abs="0" fuel_abs="0" electricity_abs="0"
            CO_normed="0" CO2_normed="0" HC_normed="0" PMx_normed="0" NOx_normed="0" fuel_normed="0" electricity_normed="0"/>
        <edge id="1to3" sampledSeconds="6133.17" CO_abs="43007.130622" CO2_abs="8694031.699867" HC_abs="1939.400166" PMx_abs="631.835417" NOx_abs="15818.333825" fuel_abs="3466.179725" electricity_abs="0"
            CO_normed="390.087353" CO2_normed="78857.430384" HC_normed="17.590931" PMx_normed="5.730933" NOx_normed="143.476951" fuel_normed="31.439272" electricity_normed="0"
            traveltime="62.25" CO_perVeh="436.518523" CO2_perVeh="88243.642850" HC_perVeh="19.684738" PMx_perVeh="6.413073" NOx_perVeh="160.554671" fuel_perVeh="35.181414" electricity_perVeh="0"/>
        <edge id="2to0" sampledSeconds="3228.16" CO_abs="31758.786090" CO2_abs="4905570.819587" HC_abs="1177.150377" PMx_abs="398.708349" NOx_abs="9183.811740" fuel_abs="1955.776978" electricity_abs="0"
            CO_normed="231.870022" CO2_normed="35815.437400" HC_normed="8.594342" PMx_normed="2.910959" NOx_normed="67.050756" fuel_normed="14.279074" electricity_normed="0"
            traveltime="80.05" CO_perVeh="787.573289" CO2_perVeh="121651.266336" HC_perVeh="29.191676" PMx_perVeh="9.887407" NOx_perVeh="227.745632" fuel_perVeh="48.500522" electricity_perVeh="0"/>
        <edge id="2to4" sampledSeconds="7718.67" CO_abs="53493.918602" CO2_abs="10865108.225076" HC_abs="2420.536827" PMx_abs="788.832741" NOx_abs="19761.713428" fuel_abs="4331.755314" electricity_abs="0"
            CO_normed="485.205611" CO2_normed="98549.734468" HC_normed="21.954983" PMx_normed="7.154945" NOx_normed="179.244566" fuel_normed="39.290298" electricity_normed="0"
            traveltime="62.20" CO_perVeh="431.075373" CO2_perVeh="87555.383979" HC_perVeh="19.505653" PMx_perVeh="6.356729" NOx_perVeh="159.247784" fuel_perVeh="34.907015" electricity_perVeh="0"/>
        <edge id="3to4" sampledSeconds="0.00" CO_abs="0" CO2_abs="0" HC_abs="0" PMx_abs="0" NOx_abs="0" fuel_abs="0" electricity_abs="0"
            CO_normed="0" CO2_normed="0" HC_normed="0" PMx_normed="0" NOx_normed="0" fuel_normed="0" electricity_normed="0"/>
        <edge id="3to5" sampledSeconds="18240.34" CO_abs="95431.439323" CO2_abs="15520284.827235" HC_abs="4370.234773" PMx_abs="1078.160361" NOx_abs="27415.551911" fuel_abs="6187.701926" electricity_abs="0"
            CO_normed="694.327368" CO2_normed="112920.423157" HC_normed="31.796373" PMx_normed="7.844336" NOx_normed="199.466425" fuel_normed="45.019658" electricity_normed="0"
            traveltime="158.52" CO_perVeh="829.379483" CO2_perVeh="134884.330468" HC_perVeh="37.981016" PMx_perVeh="9.370120" NOx_perVeh="238.264207" fuel_perVeh="53.776335" electricity_perVeh="0"/>
        <edge id="4to2" sampledSeconds="0.00" CO_abs="0" CO2_abs="0" HC_abs="0" PMx_abs="0" NOx_abs="0" fuel_abs="0" electricity_abs="0"
            CO_normed="0" CO2_normed="0" HC_normed="0" PMx_normed="0" NOx_normed="0" fuel_normed="0" electricity_normed="0"/>
        <edge id="4to3" sampledSeconds="0.00" CO_abs="0" CO2_abs="0" HC_abs="0" PMx_abs="0" NOx_abs="0" fuel_abs="0" electricity_abs="0"
            CO_normed="0" CO2_normed="0" HC_normed="0" PMx_normed="0" NOx_normed="0" fuel_normed="0" electricity_normed="0"/>
        <edge id="4to5" sampledSeconds="7780.05" CO_abs="54739.349094" CO2_abs="11027295.931507" HC_abs="2460.502947" PMx_abs="803.247071" NOx_abs="20072.397864" fuel_abs="4396.417103" electricity_abs="0"
            CO_normed="398.265272" CO2_normed="80230.932404" HC_normed="17.901800" PMx_normed="5.844158" NOx_normed="146.040081" fuel_normed="31.986867" electricity_normed="0"
            traveltime="77.54" CO_perVeh="545.552238" CO2_perVeh="109902.037026" HC_perVeh="24.522266" PMx_perVeh="8.005452" NOx_perVeh="200.048809" fuel_perVeh="43.816290" electricity_perVeh="0"/>
        <edge id="5to-5" sampledSeconds="53.97" CO_abs="1935.229477" CO2_abs="153458.843349" HC_abs="48.161210" PMx_abs="17.577431" NOx_abs="317.886227" fuel_abs="61.181674" electricity_abs="0"
            CO_normed="139336.522332" CO2_normed="11049036.721122" HC_normed="3467.607148" PMx_normed="1265.575060" NOx_normed="22887.808344" fuel_normed="4405.080528" electricity_normed="0"
            traveltime="0.01" CO_perVeh="0.369456" CO2_perVeh="29.296935" HC_perVeh="0.009194" PMx_perVeh="0.003356" NOx_perVeh="0.060688" fuel_perVeh="0.011680" electricity_perVeh="0"/>
        <edge id="5to3" sampledSeconds="0.00" CO_abs="0" CO2_abs="0" HC_abs="0" PMx_abs="0" NOx_abs="0" fuel_abs="0" electricity_abs="0"
            CO_normed="0" CO2_normed="0" HC_normed="0" PMx_normed="0" NOx_normed="0" fuel_normed="0" electricity_normed="0"/>
    </interval>
    <interval begin="1500.00" end="1739.00" id="4">
        <edge id="-1to0" sampledSeconds="0.00" departed="0" arrived="0" entered="0" left="0" laneChangedFrom="0" laneChangedTo="0"/>
        <edge id="0to1" sampledSeconds="0.00" departed="0" arrived="0" entered="0" left="0" laneChangedFrom="0" laneChangedTo="0"/>