<?xml version="1.0" encoding="UTF-8"?>

<!-- generated on Tue Aug  9 14:13:50 2016 by SUMO Version 0.27.1
<?xml version="1.0" encoding="UTF-8"?>

<configuration xmlns:xsi="http://www.w3.org/2001/XMLSchema-instance" xsi:noNamespaceSchemaLocation="http://sumo.dlr.de/xsd/sumoConfiguration.xsd">

    <input>
        <net-file value="./config/../network/simple.net.xml"/>
        <route-files value="./config/../trips/trip.xml"/>
        <additional-files value="./config/additional_0to2__0_500.xml"/>
    </input>

    <output>
        <summary-output value="./config/../output/summary_0to2__0_500.xml"/>
    </output>

    <report>
        <log value="./config/../output/report_0to2__0_500.xml"/>
    </report>

</configuration>
-->

<meandata xmlns:xsi="http://www.w3.org/2001/XMLSchema-instance" xsi:noNamespaceSchemaLocation="http://sumo.dlr.de/xsd/meandata_file.xsd">
    <interval begin="0.00" end="500.00" id="1">
        <edge id="-1to0" sampledSeconds="430.23" traveltime="0.05" density="8604.57" occupancy="4302.28" waitingTime="122.00" speed="1.92" departed="166" arrived="0" entered="0" left="166" laneChangedFrom="0" laneChangedTo="0"/>
        <edge id="0to1" sampledSeconds="11958.10" traveltime="78.41" density="24.25" occupancy="12.13" waitingTime="0.00" speed="12.58" departed="0" arrived="0" entered="165" left="139" laneChangedFrom="0" laneChangedTo="0"/>
        <edge id="0to2" sampledSeconds="0.00" departed="0" arrived="0" entered="0" left="0" laneChangedFrom="0" laneChangedTo="0"/>
        <edge id="1to0" sampledSeconds="0.00" departed="0" arrived="0" entered="0" left="0" laneChangedFrom="0" laneChangedTo="0"/>
        <edge id="1to2" sampledSeconds="0.00" departed="0" arrived="0" entered="0" left="0" laneChangedFrom="0" laneChangedTo="0"/>
        <edge id="1to3" sampledSeconds="8033.06" traveltime="62.22" density="20.24" occupancy="10.12" waitingTime="0.00" speed="12.76" departed="0" arrived="0" entered="139" left="118" laneChangedFrom="0" laneChangedTo="0"/>
        <edge id="2to0" sampledSeconds="0.00" departed="0" arrived="0" entered="0" left="0" laneChangedFrom="0" laneChangedTo="0"/>
        <edge id="2to4" sampledSeconds="0.00" departed="0" arrived="0" entered="0" left="0" laneChangedFrom="0" laneChangedTo="0"/>
        <edge id="3to4" sampledSeconds="0.00" departed="0" arrived="0" entered="0" left="0" laneChangedFrom="0" laneChangedTo="0"/>
        <edge id="3to5" sampledSeconds="8306.48" traveltime="78.93" density="16.79" occupancy="8.39" waitingTime="0.00" speed="12.54" departed="0" arrived="0" entered="118" left="92" laneChangedFrom="0" laneChangedTo="0"/>
        <edge id="4to2" sampledSeconds="0.00" departed="0" arrived="0" entered="0" left="0" laneChangedFrom="0" laneChangedTo="0"/>
        <edge id="4to3" sampledSeconds="0.00" departed="0" arrived="0" entered="0" left="0" laneChangedFrom="0" laneChangedTo="0"/>
        <edge id="4to5" sampledSeconds="0.00" departed="0" arrived="0" entered="0" left="0" laneChangedFrom="0" laneChangedTo="0"/>
        <edge id="5to-5" sampledSeconds="17.60" traveltime="0.01" density="352.01" occupancy="176.00" waitingTime="0.00" speed="7.94" departed="0" arrived="92" entered="92" left="0" laneChangedFrom="0" laneChangedTo="0"/>
        <edge id="5to3" sampledSeconds="0.00" departed="0" arrived="0" entered="0" left="0" laneChangedFrom="0" laneChangedTo="0"/>
    </interval>
    <interval begin="500.00" end="1000.00" id="2">
        <edge id="-1to0" sampledSeconds="316.89" traveltime="0.04" density="6337.75" occupancy="3168.87" waitingTime="0.00" speed="2.78" departed="176" arrived="0" entered="0" left="176" laneChangedFrom="0" laneChangedTo="0"/>
        <edge id="0to1" sampledSeconds="4626.52" traveltime="78.23" density="9.38" occupancy="4.69" waitingTime="0.00" speed="12.61" departed="0" arrived="0" entered="50" left="69" laneChangedFrom="0" laneChangedTo="0"/>
        <edge id="0to2" sampledSeconds="9219.60" traveltime="78.67" density="18.70" occupancy="9.35" waitingTime="0.00" speed="12.54" departed="0" arrived="0" entered="126" left="106" laneChangedFrom="0" laneChangedTo="0"/>
        <edge id="1to0" sampledSeconds="0.00" departed="0" arrived="0" entered="0" left="0" laneChangedFrom="0" laneChangedTo="0"/>
        <edge id="1to2" sampledSeconds="0.00" departed="0" arrived="0" entered="0" left="0" laneChangedFrom="0" laneChangedTo="0"/>
        <edge id="1to3" sampledSeconds="4883.56" traveltime="62.22" density="12.30" occupancy="6.15" waitingTime="0.00" speed="12.76" departed="0" arrived="0" entered="69" left="84" laneChangedFrom="0" laneChangedTo="0"/>
        <edge id="2to0" sampledSeconds="0.00" departed="0" arrived="0" entered="0" left="0" laneChangedFrom="0" laneChangedTo="0"/>
        <edge id="2to4" sampledSeconds="6033.60" traveltime="62.22" density="15.20" occupancy="7.60" waitingTime="0.00" speed="12.76" departed="0" arrived="0" entered="105" left="89" laneChangedFrom="0" laneChangedTo="0"/>
        <edge id="3to4" sampledSeconds="0.00" departed="0" arrived="0" entered="0" left="0" laneChangedFrom="0" laneChangedTo="0"/>
        <edge id="3to5" sampledSeconds="7158.20" traveltime="80.05" density="14.47" occupancy="7.23" waitingTime="44.00" speed="12.36" departed="0" arrived="0" entered="84" left="94" laneChangedFrom="0" laneChangedTo="0"/>
        <edge id="4to2" sampledSeconds="0.00" departed="0" arrived="0" entered="0" left="0" laneChangedFrom="0" laneChangedTo="0"/>
        <edge id="4to3" sampledSeconds="0.00" departed="0" arrived="0" entered="0" left="0" laneChangedFrom="0" laneChangedTo="0"/>
        <edge id="4to5" sampledSeconds="6471.52" traveltime="77.56" density="13.08" occupancy="6.54" waitingTime="0.00" speed="12.76" departed="0" arrived="0" entered="89" left="76" laneChangedFrom="0" laneChangedTo="0"/>
        <edge id="5to-5" sampledSeconds="51.26" traveltime="0.01" density="1025.12" occupancy="512.56" waitingTime="0.00" speed="9.95" departed="0" arrived="170" entered="170" left="0" laneChangedFrom="0" laneChangedTo="0"/>
        <edge id="5to3" sampledSeconds="0.00" departed="0" arrived="0" entered="0" left="0" laneChangedFrom="0" laneChangedTo="0"/>
    </interval>
    <interval begin="1000.00" end="1500.00" id="3">
        <edge id="-1to0" sampledSeconds="285.98" traveltime="0.04" density="5719.67" occupancy="2859.84" waitingTime="0.00" speed="2.76" departed="158" arrived="0" entered="0" left="158" laneChangedFrom="0" laneChangedTo="0"/>
        <edge id="0to1" sampledSeconds="3044.85" traveltime="78.33" density="6.18" occupancy="3.09" waitingTime="0.00" speed="12.59" departed="0" arrived="0" entered="35" left="40" laneChangedFrom="0" laneChangedTo="0"/>
        <edge id="0to2" sampledSeconds="10420.81" traveltime="78.56" density="21.13" occupancy="10.57" waitingTime="0.00" speed="12.55" departed="0" arrived="0" entered="124" left="136" laneChangedFrom="0" laneChangedTo="0"/>
        <edge id="1to0" sampledSeconds="0.00" departed="0" arrived="0" entered="0" left="0" laneChangedFrom="0" laneChangedTo="0"/>
        <edge id="1to2" sampledSeconds="0.00" departed="0" arrived="0" entered="0" left="0" laneChangedFrom="0" laneChangedTo="0"/>
        <edge id="1to3" sampledSeconds="2601.50" traveltime="62.22" density="6.55" occupancy="3.28" waitingTime="0.00" speed="12.76" departed="0" arrived="0" entered="40" left="44" laneChangedFrom="0" laneChangedTo="0"/>
        <edge id="2to0" sampledSeconds="0.00" departed="0" arrived="0" entered="0" left="0" laneChangedFrom="0" laneChangedTo="0"/>
        <edge id="2to4" sampledSeconds="8439.88" traveltime="62.22" density="21.26" occupancy="10.63" waitingTime="0.00" speed="12.76" departed="0" arrived="0" entered="136" left="133" laneChangedFrom="0" laneChangedTo="0"/>
        <edge id="3to4" sampledSeconds="0.00" departed="0" arrived="0" entered="0" left="0" laneChangedFrom="0" laneChangedTo="0"/>
        <edge id="3to5" sampledSeconds="3937.13" traveltime="84.47" density="7.96" occupancy="3.98" waitingTime="149.00" speed="11.71" departed="0" arrived="0" entered="44" left="47" laneChangedFrom="0" laneChangedTo="0"/>
        <edge id="4to2" sampledSeconds="0.00" departed="0" arrived="0" entered="0" left="0" laneChangedFrom="0" laneChangedTo="0"/>
        <edge id="4to3" sampledSeconds="0.00" departed="0" arrived="0" entered="0" left="0" laneChangedFrom="0" laneChangedTo="0"/>
        <edge id="4to5" sampledSeconds="10178.41" traveltime="77.56" density="20.57" occupancy="10.29" waitingTime="0.00" speed="12.76" departed="0" arrived="0" entered="133" left="129" laneChangedFrom="0" laneChangedTo="0"/>
        <edge id="5to-5" sampledSeconds="59.02" traveltime="0.01" density="1180.43" occupancy="590.22" waitingTime="0.00" speed="10.75" departed="0" arrived="176" entered="176" left="0" laneChangedFrom="0" laneChangedTo="0"/>
        <edge id="5to3" sampledSeconds="0.00" departed="0" arrived="0" entered="0" left="0" laneChangedFrom="0" laneChangedTo="0"/>
    </interval>
    <interval begin="1500.00" end="1673.00" id="4">
        <edge id="-1to0" sampledSeconds="0.00" departed="0" arrived="0" entered="0" left="0" laneChangedFrom="0" laneChangedTo="0"/>
        <edge id="0to1" sampledSeconds="57.62" traveltime="77.74" density="0.34" occupancy="0.17" waitingTime="0.00" speed="12.69" departed="0" arrived="0" entered="0" left="2" laneChangedFrom="0" laneChangedTo="0"/>
        <edge id="0to2" sampledSeconds="109.46" traveltime="77.17" density="0.64" occupancy="0.32" waitingTime="0.00" speed="12.78" departed="0" arrived="0" entered="0" left="8" laneChangedFrom="0" laneChangedTo="0"/>
        <edge id="1to0" sampledSeconds="0.00" departed="0" arrived="0" entered="0" left="0" laneChangedFrom="0" laneChangedTo="0"/>
        <edge id="1to2" sampledSeconds="0.00" departed="0" arrived="0" entered="0" left="0" laneChangedFrom="0" laneChangedTo="0"/>
        <edge id="1to3" sampledSeconds="135.07" traveltime="62.07" density="0.98" occupancy="0.49" waitingTime="0.00" speed="12.79" departed="0" arrived="0" entered="2" left="4" laneChangedFrom="0" laneChangedTo="0"/>
        <edge id="2to0" sampledSeconds="0.00" departed="0" arrived="0" entered="0" left="0" laneChangedFrom="0" laneChangedTo="0"/>
        <edge id="2to4" sampledSeconds="1181.85" traveltime="62.31" density="8.61" occupancy="4.30" waitingTime="0.00" speed="12.74" departed="0" arrived="0" entered="9" left="28" laneChangedFrom="0" laneChangedTo="0"/>
        <edge id="3to4" sampledSeconds="0.00" departed="0" arrived="0" entered="0" left="0" laneChangedFrom="0" laneChangedTo="0"/>
        <edge id="3to5" sampledSeconds="908.23" traveltime="91.05" density="5.31" occupancy="2.65" waitingTime="57.00" speed="10.87" departed="0" arrived="0" entered="4" left="17" laneChangedFrom="0" laneChangedTo="0"/>
        <edge id="4to2" sampledSeconds="0.00" departed="0" arrived="0" entered="0" left="0" laneChangedFrom="0" laneChangedTo="0"/>
        <edge id="4to3" sampledSeconds="0.00" departed="0" arrived="0" entered="0" left="0" laneChangedFrom="0" laneChangedTo="0"/>
        <edge id="4to5" sampledSeconds="2839.23" traveltime="77.58" density="16.58" occupancy="8.29" waitingTime="0.00" speed="12.76" departed="0" arrived="0" entered="28" left="45" laneChangedFrom="0" laneChangedTo="0"/>
        <edge id="5to-5" sampledSeconds="22.35" traveltime="0.01" density="1291.82" occupancy="645.91" waitingTime="0.00" speed="10.43" departed="0" arrived="62" entered="62" left="0" laneChangedFrom="0" laneChangedTo="0"/>
        <edge id="5to3" sampledSeconds="0.00" departed="0" arrived="0" entered="0" left="0" laneChangedFrom="0" laneChangedTo="0"/>
    </interval>
</meandata>
