<?xml version="1.0" encoding="UTF-8"?>

<!-- generated on 10/04/16 16:30:03 by SUMO Version 0.27.1
<?xml version="1.0" encoding="UTF-8"?>

<configuration xmlns:xsi="http://www.w3.org/2001/XMLSchema-instance" xsi:noNamespaceSchemaLocation="http://sumo.dlr.de/xsd/sumoConfiguration.xsd">

    <input>
        <net-file value="../config/../network/simple.net.xml"/>
        <route-files value="../config/../trips/trip.xml"/>
        <additional-files value="../config/additional_2to4__0_500.xml"/>
    </input>

    <output>
        <summary-output value="../config/../output/summary_2to4__0_500.xml"/>
        <tripinfo-output value="../output/tripinfo_2_to_4_0_500.xml"/>
    </output>

    <report>
        <log value="../config/../output/report_2to4__0_500.xml"/>
    </report>

</configuration>
-->

<tripinfos xmlns:xsi="http://www.w3.org/2001/XMLSchema-instance" xsi:noNamespaceSchemaLocation="http://sumo.dlr.de/xsd/tripinfo_file.xsd">
    <tripinfo id="0" depart="0.00" departLane="-1to0_0" departPos="0.10" departSpeed="0.00" departDelay="0.00" arrival="223.00" arrivalLane="5to-5_0" arrivalPos="0.10" arrivalSpeed="9.24" duration="223.00" routeLength="2801.05" waitSteps="0" timeLoss="13.91" rerouteNo="1" devices="tripinfo_0 routing_0" vType="DEFAULT_VEHTYPE" vaporized=""/>
    <tripinfo id="1" depart="3.00" departLane="-1to0_0" departPos="0.10" departSpeed="0.00" departDelay="2.00" arrival="227.00" arrivalLane="5to-5_0" arrivalPos="0.10" arrivalSpeed="5.29" duration="224.00" routeLength="2801.05" waitSteps="0" timeLoss="15.00" rerouteNo="1" devices="tripinfo_1 routing_1" vType="DEFAULT_VEHTYPE" vaporized=""/>
    <tripinfo id="4" depart="10.00" departLane="-1to0_0" departPos="0.10" departSpeed="0.00" departDelay="6.00" arrival="234.00" arrivalLane="5to-5_0" arrivalPos="0.10" arrivalSpeed="5.88" duration="224.00" routeLength="2801.05" waitSteps="0" timeLoss="14.98" rerouteNo="2" devices="tripinfo_4 routing_4" vType="DEFAULT_VEHTYPE" vaporized=""/>
    <tripinfo id="5" depart="12.00" departLane="-1to0_0" departPos="0.10" departSpeed="0.00" departDelay="7.00" arrival="237.00" arrivalLane="5to-5_0" arrivalPos="0.10" arrivalSpeed="8.42" duration="225.00" routeLength="2801.05" waitSteps="0" timeLoss="15.92" rerouteNo="2" devices="tripinfo_5 routing_5" vType="DEFAULT_VEHTYPE" vaporized=""/>
    <tripinfo id="6" depart="16.00" departLane="-1to0_0" departPos="0.10" departSpeed="0.00" departDelay="10.00" arrival="240.00" arrivalLane="5to-5_0" arrivalPos="0.10" arrivalSpeed="7.48" duration="224.00" routeLength="2801.05" waitSteps="0" timeLoss="14.93" rerouteNo="2" devices="tripinfo_6 routing_6" vType="DEFAULT_VEHTYPE" vaporized=""/>
    <tripinfo id="9" depart="24.00" departLane="-1to0_0" departPos="0.10" departSpeed="0.00" departDelay="15.00" arrival="248.00" arrivalLane="5to-5_0" arrivalPos="0.10" arrivalSpeed="7.09" duration="224.00" routeLength="2801.05" waitSteps="0" timeLoss="14.91" rerouteNo="3" devices="tripinfo_9 routing_9" vType="DEFAULT_VEHTYPE" vaporized=""/>
    <tripinfo id="10" depart="27.00" departLane="-1to0_0" departPos="0.10" departSpeed="0.00" departDelay="17.00" arrival="251.00" arrivalLane="5to-5_0" arrivalPos="0.10" arrivalSpeed="6.99" duration="224.00" routeLength="2801.05" waitSteps="0" timeLoss="14.95" rerouteNo="3" devices="tripinfo_10 routing_10" vType="DEFAULT_VEHTYPE" vaporized=""/>
    <tripinfo id="13" depart="35.00" departLane="-1to0_0" departPos="0.10" departSpeed="0.00" departDelay="22.00" arrival="257.00" arrivalLane="5to-5_0" arrivalPos="0.10" arrivalSpeed="10.08" duration="222.00" routeLength="2801.05" waitSteps="0" timeLoss="12.88" rerouteNo="5" devices="tripinfo_13 routing_13" vType="DEFAULT_VEHTYPE" vaporized=""/>
    <tripinfo id="14" depart="38.00" departLane="-1to0_0" departPos="0.10" departSpeed="0.00" departDelay="24.00" arrival="262.00" arrivalLane="5to-5_0" arrivalPos="0.10" arrivalSpeed="7.14" duration="224.00" routeLength="2801.05" waitSteps="0" timeLoss="14.91" rerouteNo="5" devices="tripinfo_14 routing_14" vType="DEFAULT_VEHTYPE" vaporized=""/>
    <tripinfo id="17" depart="45.00" departLane="-1to0_0" departPos="0.10" departSpeed="0.00" departDelay="28.00" arrival="268.00" arrivalLane="5to-5_0" arrivalPos="0.10" arrivalSpeed="7.44" duration="223.00" routeLength="2801.05" waitSteps="0" timeLoss="14.01" rerouteNo="6" devices="tripinfo_17 routing_17" vType="DEFAULT_VEHTYPE" vaporized=""/>
    <tripinfo id="18" depart="48.00" departLane="-1to0_0" departPos="0.10" departSpeed="0.00" departDelay="30.00" arrival="272.00" arrivalLane="5to-5_0" arrivalPos="0.10" arrivalSpeed="7.95" duration="224.00" routeLength="2801.05" waitSteps="0" timeLoss="14.91" rerouteNo="6" devices="tripinfo_18 routing_18" vType="DEFAULT_VEHTYPE" vaporized=""/>
    <tripinfo id="21" depart="55.00" departLane="-1to0_0" departPos="0.10" departSpeed="0.00" departDelay="34.00" arrival="278.00" arrivalLane="5to-5_0" arrivalPos="0.10" arrivalSpeed="8.93" duration="223.00" routeLength="2801.05" waitSteps="0" timeLoss="13.93" rerouteNo="8" devices="tripinfo_21 routing_21" vType="DEFAULT_VEHTYPE" vaporized=""/>
    <tripinfo id="22" depart="58.00" departLane="-1to0_0" departPos="0.10" departSpeed="0.00" departDelay="36.00" arrival="282.00" arrivalLane="5to-5_0" arrivalPos="0.10" arrivalSpeed="7.11" duration="224.00" routeLength="2801.05" waitSteps="0" timeLoss="14.84" rerouteNo="8" devices="tripinfo_22 routing_22" vType="DEFAULT_VEHTYPE" vaporized=""/>
    <tripinfo id="24" depart="64.00" departLane="-1to0_0" departPos="0.10" departSpeed="0.00" departDelay="40.00" arrival="287.00" arrivalLane="5to-5_0" arrivalPos="0.10" arrivalSpeed="9.67" duration="223.00" routeLength="2801.05" waitSteps="0" timeLoss="13.91" rerouteNo="9" devices="tripinfo_24 routing_24" vType="DEFAULT_VEHTYPE" vaporized=""/>
    <tripinfo id="25" depart="67.00" departLane="-1to0_0" departPos="0.10" departSpeed="0.00" departDelay="42.00" arrival="291.00" arrivalLane="5to-5_0" arrivalPos="0.10" arrivalSpeed="6.91" duration="224.00" routeLength="2801.05" waitSteps="0" timeLoss="14.99" rerouteNo="9" devices="tripinfo_25 routing_25" vType="DEFAULT_VEHTYPE" vaporized=""/>
    <tripinfo id="27" depart="72.00" departLane="-1to0_0" departPos="0.10" departSpeed="0.00" departDelay="45.00" arrival="296.00" arrivalLane="5to-5_0" arrivalPos="0.10" arrivalSpeed="7.82" duration="224.00" routeLength="2801.05" waitSteps="0" timeLoss="14.90" rerouteNo="11" devices="tripinfo_27 routing_27" vType="DEFAULT_VEHTYPE" vaporized=""/>
    <tripinfo id="28" depart="75.00" departLane="-1to0_0" departPos="0.10" departSpeed="0.00" departDelay="47.00" arrival="299.00" arrivalLane="5to-5_0" arrivalPos="0.10" arrivalSpeed="7.51" duration="224.00" routeLength="2801.05" waitSteps="0" timeLoss="14.89" rerouteNo="11" devices="tripinfo_28 routing_28" vType="DEFAULT_VEHTYPE" vaporized=""/>
    <tripinfo id="30" depart="80.00" departLane="-1to0_0" departPos="0.10" departSpeed="0.00" departDelay="50.00" arrival="303.00" arrivalLane="5to-5_0" arrivalPos="0.10" arrivalSpeed="8.35" duration="223.00" routeLength="2801.05" waitSteps="0" timeLoss="13.93" rerouteNo="12" devices="tripinfo_30 routing_30" vType="DEFAULT_VEHTYPE" vaporized=""/>
    <tripinfo id="31" depart="83.00" departLane="-1to0_0" departPos="0.10" departSpeed="0.00" departDelay="52.00" arrival="307.00" arrivalLane="5to-5_0" arrivalPos="0.10" arrivalSpeed="9.34" duration="224.00" routeLength="2801.05" waitSteps="0" timeLoss="14.87" rerouteNo="12" devices="tripinfo_31 routing_31" vType="DEFAULT_VEHTYPE" vaporized=""/>
    <tripinfo id="34" depart="91.00" departLane="-1to0_0" departPos="0.10" departSpeed="0.00" departDelay="57.00" arrival="314.00" arrivalLane="5to-5_0" arrivalPos="0.10" arrivalSpeed="8.52" duration="223.00" routeLength="2801.05" waitSteps="0" timeLoss="13.88" rerouteNo="13" devices="tripinfo_34 routing_34" vType="DEFAULT_VEHTYPE" vaporized=""/>
    <tripinfo id="35" depart="94.00" departLane="-1to0_0" departPos="0.10" departSpeed="0.00" departDelay="59.00" arrival="318.00" arrivalLane="5to-5_0" arrivalPos="0.10" arrivalSpeed="7.27" duration="224.00" routeLength="2801.05" waitSteps="0" timeLoss="14.99" rerouteNo="13" devices="tripinfo_35 routing_35" vType="DEFAULT_VEHTYPE" vaporized=""/>
    <tripinfo id="38" depart="101.00" departLane="-1to0_0" departPos="0.10" departSpeed="0.00" departDelay="63.00" arrival="325.00" arrivalLane="5to-5_0" arrivalPos="0.10" arrivalSpeed="5.60" duration="224.00" routeLength="2801.05" waitSteps="0" timeLoss="14.98" rerouteNo="15" devices="tripinfo_38 routing_38" vType="DEFAULT_VEHTYPE" vaporized=""/>
    <tripinfo id="39" depart="104.00" departLane="-1to0_0" departPos="0.10" departSpeed="0.00" departDelay="65.00" arrival="328.00" arrivalLane="5to-5_0" arrivalPos="0.10" arrivalSpeed="6.87" duration="224.00" routeLength="2801.05" waitSteps="0" timeLoss="14.98" rerouteNo="15" devices="tripinfo_39 routing_39" vType="DEFAULT_VEHTYPE" vaporized=""/>
    <tripinfo id="42" depart="112.00" departLane="-1to0_0" departPos="0.10" departSpeed="0.00" departDelay="70.00" arrival="336.00" arrivalLane="5to-5_0" arrivalPos="0.10" arrivalSpeed="9.84" duration="224.00" routeLength="2801.05" waitSteps="0" timeLoss="14.84" rerouteNo="16" devices="tripinfo_42 routing_42" vType="DEFAULT_VEHTYPE" vaporized=""/>
    <tripinfo id="43" depart="115.00" departLane="-1to0_0" departPos="0.10" departSpeed="0.00" departDelay="72.00" arrival="339.00" arrivalLane="5to-5_0" arrivalPos="0.10" arrivalSpeed="6.93" duration="224.00" routeLength="2801.05" waitSteps="0" timeLoss="14.89" rerouteNo="16" devices="tripinfo_43 routing_43" vType="DEFAULT_VEHTYPE" vaporized=""/>
    <tripinfo id="46" depart="123.00" departLane="-1to0_0" departPos="0.10" departSpeed="0.00" departDelay="77.00" arrival="346.00" arrivalLane="5to-5_0" arrivalPos="0.10" arrivalSpeed="8.26" duration="223.00" routeLength="2801.05" waitSteps="0" timeLoss="13.89" rerouteNo="17" devices="tripinfo_46 routing_46" vType="DEFAULT_VEHTYPE" vaporized=""/>
    <tripinfo id="49" depart="132.00" departLane="-1to0_0" departPos="0.10" departSpeed="0.00" departDelay="83.00" arrival="356.00" arrivalLane="5to-5_0" arrivalPos="0.10" arrivalSpeed="6.63" duration="224.00" routeLength="2801.05" waitSteps="0" timeLoss="14.92" rerouteNo="19" devices="tripinfo_49 routing_49" vType="DEFAULT_VEHTYPE" vaporized=""/>
    <tripinfo id="52" depart="141.00" departLane="-1to0_0" departPos="0.10" departSpeed="0.00" departDelay="89.00" arrival="365.00" arrivalLane="5to-5_0" arrivalPos="0.10" arrivalSpeed="7.65" duration="224.00" routeLength="2801.05" waitSteps="0" timeLoss="14.86" rerouteNo="20" devices="tripinfo_52 routing_52" vType="DEFAULT_VEHTYPE" vaporized=""/>
    <tripinfo id="2" depart="5.00" departLane="-1to0_0" departPos="0.10" departSpeed="0.00" departDelay="3.00" arrival="386.00" arrivalLane="5to-5_0" arrivalPos="0.10" arrivalSpeed="5.59" duration="381.00" routeLength="4779.33" waitSteps="0" timeLoss="24.23" rerouteNo="3" devices="tripinfo_2 routing_2" vType="DEFAULT_VEHTYPE" vaporized=""/>
    <tripinfo id="3" depart="8.00" departLane="-1to0_0" departPos="0.10" departSpeed="0.00" departDelay="5.00" arrival="391.00" arrivalLane="5to-5_0" arrivalPos="0.10" arrivalSpeed="5.83" duration="383.00" routeLength="4779.33" waitSteps="0" timeLoss="26.21" rerouteNo="3" devices="tripinfo_3 routing_3" vType="DEFAULT_VEHTYPE" vaporized=""/>
    <tripinfo id="7" depart="19.00" departLane="-1to0_0" departPos="0.10" departSpeed="0.00" departDelay="12.00" arrival="404.00" arrivalLane="5to-5_0" arrivalPos="0.10" arrivalSpeed="7.74" duration="385.00" routeLength="4779.33" waitSteps="0" timeLoss="27.71" rerouteNo="4" devices="tripinfo_7 routing_7" vType="DEFAULT_VEHTYPE" vaporized=""/>
    <tripinfo id="8" depart="22.00" departLane="-1to0_0" departPos="0.10" departSpeed="0.00" departDelay="14.00" arrival="407.00" arrivalLane="5to-5_0" arrivalPos="0.10" arrivalSpeed="6.23" duration="385.00" routeLength="4779.33" waitSteps="0" timeLoss="28.18" rerouteNo="4" devices="tripinfo_8 routing_8" vType="DEFAULT_VEHTYPE" vaporized=""/>
    <tripinfo id="11" depart="29.00" departLane="-1to0_0" departPos="0.10" departSpeed="0.00" departDelay="18.00" arrival="410.00" arrivalLane="5to-5_0" arrivalPos="0.10" arrivalSpeed="8.22" duration="381.00" routeLength="4779.33" waitSteps="0" timeLoss="24.16" rerouteNo="5" devices="tripinfo_11 routing_11" vType="DEFAULT_VEHTYPE" vaporized=""/>
    <tripinfo id="12" depart="32.00" departLane="-1to0_0" departPos="0.10" departSpeed="0.00" departDelay="20.00" arrival="416.00" arrivalLane="5to-5_0" arrivalPos="0.10" arrivalSpeed="8.88" duration="384.00" routeLength="4779.33" waitSteps="0" timeLoss="26.63" rerouteNo="5" devices="tripinfo_12 routing_12" vType="DEFAULT_VEHTYPE" vaporized=""/>
    <tripinfo id="15" depart="40.00" departLane="-1to0_0" departPos="0.10" departSpeed="0.00" departDelay="25.00" arrival="422.00" arrivalLane="5to-5_0" arrivalPos="0.10" arrivalSpeed="6.05" duration="382.00" routeLength="4779.33" waitSteps="0" timeLoss="25.17" rerouteNo="7" devices="tripinfo_15 routing_15" vType="DEFAULT_VEHTYPE" vaporized=""/>
    <tripinfo id="16" depart="43.00" departLane="-1to0_0" departPos="0.10" departSpeed="0.00" departDelay="27.00" arrival="425.00" arrivalLane="5to-5_0" arrivalPos="0.10" arrivalSpeed="9.99" duration="382.00" routeLength="4779.33" waitSteps="0" timeLoss="25.12" rerouteNo="7" devices="tripinfo_16 routing_16" vType="DEFAULT_VEHTYPE" vaporized=""/>
    <tripinfo id="19" depart="50.00" departLane="-1to0_0" departPos="0.10" departSpeed="0.00" departDelay="31.00" arrival="433.00" arrivalLane="5to-5_0" arrivalPos="0.10" arrivalSpeed="5.68" duration="383.00" routeLength="4779.33" waitSteps="0" timeLoss="26.20" rerouteNo="8" devices="tripinfo_19 routing_19" vType="DEFAULT_VEHTYPE" vaporized=""/>
    <tripinfo id="20" depart="53.00" departLane="-1to0_0" departPos="0.10" departSpeed="0.00" departDelay="33.00" arrival="435.00" arrivalLane="5to-5_0" arrivalPos="0.10" arrivalSpeed="10.21" duration="382.00" routeLength="4779.33" waitSteps="0" timeLoss="25.13" rerouteNo="8" devices="tripinfo_20 routing_20" vType="DEFAULT_VEHTYPE" vaporized=""/>
    <tripinfo id="23" depart="61.00" departLane="-1to0_0" departPos="0.10" departSpeed="0.00" departDelay="38.00" arrival="441.00" arrivalLane="5to-5_0" arrivalPos="0.10" arrivalSpeed="9.04" duration="380.00" routeLength="4779.33" waitSteps="0" timeLoss="23.07" rerouteNo="9" devices="tripinfo_23 routing_23" vType="DEFAULT_VEHTYPE" vaporized=""/>
    <tripinfo id="26" depart="69.00" departLane="-1to0_0" departPos="0.10" departSpeed="0.00" departDelay="43.00" arrival="450.00" arrivalLane="5to-5_0" arrivalPos="0.10" arrivalSpeed="9.12" duration="381.00" routeLength="4779.33" waitSteps="0" timeLoss="24.14" rerouteNo="11" devices="tripinfo_26 routing_26" vType="DEFAULT_VEHTYPE" vaporized=""/>
    <tripinfo id="29" depart="77.00" departLane="-1to0_0" departPos="0.10" departSpeed="0.00" departDelay="48.00" arrival="459.00" arrivalLane="5to-5_0" arrivalPos="0.10" arrivalSpeed="6.87" duration="382.00" routeLength="4779.33" waitSteps="0" timeLoss="25.10" rerouteNo="12" devices="tripinfo_29 routing_29" vType="DEFAULT_VEHTYPE" vaporized=""/>
    <tripinfo id="32" depart="86.00" departLane="-1to0_0" departPos="0.10" departSpeed="0.00" departDelay="54.00" arrival="467.00" arrivalLane="5to-5_0" arrivalPos="0.10" arrivalSpeed="8.95" duration="381.00" routeLength="4779.33" waitSteps="0" timeLoss="24.20" rerouteNo="14" devices="tripinfo_32 routing_32" vType="DEFAULT_VEHTYPE" vaporized=""/>
    <tripinfo id="33" depart="89.00" departLane="-1to0_0" departPos="0.10" departSpeed="0.00" departDelay="56.00" arrival="471.00" arrivalLane="5to-5_0" arrivalPos="0.10" arrivalSpeed="8.78" duration="382.00" routeLength="4779.33" waitSteps="0" timeLoss="25.09" rerouteNo="13" devices="tripinfo_33 routing_33" vType="DEFAULT_VEHTYPE" vaporized=""/>
    <tripinfo id="36" depart="96.00" departLane="-1to0_0" departPos="0.10" departSpeed="0.00" departDelay="60.00" arrival="478.00" arrivalLane="5to-5_0" arrivalPos="0.10" arrivalSpeed="7.81" duration="382.00" routeLength="4779.33" waitSteps="0" timeLoss="25.13" rerouteNo="15" devices="tripinfo_36 routing_36" vType="DEFAULT_VEHTYPE" vaporized=""/>
    <tripinfo id="37" depart="99.00" departLane="-1to0_0" departPos="0.10" departSpeed="0.00" departDelay="62.00" arrival="482.00" arrivalLane="5to-5_0" arrivalPos="0.10" arrivalSpeed="8.87" duration="383.00" routeLength="4779.33" waitSteps="0" timeLoss="26.23" rerouteNo="15" devices="tripinfo_37 routing_37" vType="DEFAULT_VEHTYPE" vaporized=""/>
    <tripinfo id="40" depart="107.00" departLane="-1to0_0" departPos="0.10" departSpeed="0.00" departDelay="67.00" arrival="488.00" arrivalLane="5to-5_0" arrivalPos="0.10" arrivalSpeed="10.11" duration="381.00" routeLength="4779.33" waitSteps="0" timeLoss="24.13" rerouteNo="16" devices="tripinfo_40 routing_40" vType="DEFAULT_VEHTYPE" vaporized=""/>
    <tripinfo id="41" depart="110.00" departLane="-1to0_0" departPos="0.10" departSpeed="0.00" departDelay="69.00" arrival="494.00" arrivalLane="5to-5_0" arrivalPos="0.10" arrivalSpeed="6.45" duration="384.00" routeLength="4779.33" waitSteps="0" timeLoss="27.13" rerouteNo="16" devices="tripinfo_41 routing_41" vType="DEFAULT_VEHTYPE" vaporized=""/>
    <tripinfo id="44" depart="117.00" departLane="-1to0_0" departPos="0.10" departSpeed="0.00" departDelay="73.00" arrival="498.00" arrivalLane="5to-5_0" arrivalPos="0.10" arrivalSpeed="7.86" duration="381.00" routeLength="4779.33" waitSteps="0" timeLoss="24.21" rerouteNo="18" devices="tripinfo_44 routing_44" vType="DEFAULT_VEHTYPE" vaporized=""/>
    <tripinfo id="45" depart="120.00" departLane="-1to0_0" departPos="0.10" departSpeed="0.00" departDelay="75.00" arrival="503.00" arrivalLane="5to-5_0" arrivalPos="0.10" arrivalSpeed="7.67" duration="383.00" routeLength="4779.33" waitSteps="0" timeLoss="25.70" rerouteNo="17" devices="tripinfo_45 routing_45" vType="DEFAULT_VEHTYPE" vaporized=""/>
    <tripinfo id="47" depart="126.00" departLane="-1to0_0" departPos="0.10" departSpeed="0.00" departDelay="79.00" arrival="509.00" arrivalLane="5to-5_0" arrivalPos="0.10" arrivalSpeed="6.54" duration="383.00" routeLength="4779.33" waitSteps="0" timeLoss="26.20" rerouteNo="19" devices="tripinfo_47 routing_47" vType="DEFAULT_VEHTYPE" vaporized=""/>
    <tripinfo id="48" depart="129.00" departLane="-1to0_0" departPos="0.10" departSpeed="0.00" departDelay="81.00" arrival="511.00" arrivalLane="5to-5_0" arrivalPos="0.10" arrivalSpeed="9.91" duration="382.00" routeLength="4779.33" waitSteps="0" timeLoss="25.13" rerouteNo="19" devices="tripinfo_48 routing_48" vType="DEFAULT_VEHTYPE" vaporized=""/>
    <tripinfo id="50" depart="135.00" departLane="-1to0_0" departPos="0.10" departSpeed="0.00" departDelay="85.00" arrival="516.00" arrivalLane="5to-5_0" arrivalPos="0.10" arrivalSpeed="8.95" duration="381.00" routeLength="4779.33" waitSteps="0" timeLoss="24.09" rerouteNo="20" devices="tripinfo_50 routing_50" vType="DEFAULT_VEHTYPE" vaporized=""/>
    <tripinfo id="51" depart="138.00" departLane="-1to0_0" departPos="0.10" departSpeed="0.00" departDelay="87.00" arrival="520.00" arrivalLane="5to-5_0" arrivalPos="0.10" arrivalSpeed="10.82" duration="382.00" routeLength="4779.33" waitSteps="0" timeLoss="24.46" rerouteNo="20" devices="tripinfo_51 routing_51" vType="DEFAULT_VEHTYPE" vaporized=""/>
    <tripinfo id="53" depart="144.00" departLane="-1to0_0" departPos="0.10" departSpeed="0.00" departDelay="91.00" arrival="525.00" arrivalLane="5to-5_0" arrivalPos="0.10" arrivalSpeed="10.38" duration="381.00" routeLength="4779.33" waitSteps="0" timeLoss="24.10" rerouteNo="22" devices="tripinfo_53 routing_53" vType="DEFAULT_VEHTYPE" vaporized=""/>
    <tripinfo id="54" depart="147.00" departLane="-1to0_0" departPos="0.10" departSpeed="0.00" departDelay="93.00" arrival="529.00" arrivalLane="5to-5_0" arrivalPos="0.10" arrivalSpeed="7.35" duration="382.00" routeLength="4779.33" waitSteps="0" timeLoss="25.12" rerouteNo="22" devices="tripinfo_54 routing_54" vType="DEFAULT_VEHTYPE" vaporized=""/>
    <tripinfo id="55" depart="150.00" departLane="-1to0_0" departPos="0.10" departSpeed="0.00" departDelay="95.00" arrival="534.00" arrivalLane="5to-5_0" arrivalPos="0.10" arrivalSpeed="7.84" duration="384.00" routeLength="4779.33" waitSteps="0" timeLoss="26.69" rerouteNo="21" devices="tripinfo_55 routing_55" vType="DEFAULT_VEHTYPE" vaporized=""/>
    <tripinfo id="56" depart="153.00" departLane="-1to0_0" departPos="0.10" departSpeed="0.00" departDelay="97.00" arrival="536.00" arrivalLane="5to-5_0" arrivalPos="0.10" arrivalSpeed="6.54" duration="383.00" routeLength="4779.33" waitSteps="0" timeLoss="26.17" rerouteNo="22" devices="tripinfo_56 routing_56" vType="DEFAULT_VEHTYPE" vaporized=""/>
    <tripinfo id="57" depart="156.00" departLane="-1to0_0" departPos="0.10" departSpeed="0.00" departDelay="99.00" arrival="540.00" arrivalLane="5to-5_0" arrivalPos="0.10" arrivalSpeed="6.89" duration="384.00" routeLength="4779.33" waitSteps="0" timeLoss="26.80" rerouteNo="21" devices="tripinfo_57 routing_57" vType="DEFAULT_VEHTYPE" vaporized=""/>
    <tripinfo id="58" depart="159.00" departLane="-1to0_0" departPos="0.10" departSpeed="0.00" departDelay="101.00" arrival="542.00" arrivalLane="5to-5_0" arrivalPos="0.10" arrivalSpeed="8.55" duration="383.00" routeLength="4779.33" waitSteps="0" timeLoss="26.07" rerouteNo="21" devices="tripinfo_58 routing_58" vType="DEFAULT_VEHTYPE" vaporized=""/>
    <tripinfo id="59" depart="162.00" departLane="-1to0_0" departPos="0.10" departSpeed="0.00" departDelay="103.00" arrival="544.00" arrivalLane="5to-5_0" arrivalPos="0.10" arrivalSpeed="9.50" duration="382.00" routeLength="4779.33" waitSteps="0" timeLoss="25.15" rerouteNo="21" devices="tripinfo_59 routing_59" vType="DEFAULT_VEHTYPE" vaporized=""/>
    <tripinfo id="60" depart="165.00" departLane="-1to0_0" departPos="0.10" departSpeed="0.00" departDelay="105.00" arrival="547.00" arrivalLane="5to-5_0" arrivalPos="0.10" arrivalSpeed="7.36" duration="382.00" routeLength="4779.33" waitSteps="0" timeLoss="25.14" rerouteNo="21" devices="tripinfo_60 routing_60" vType="DEFAULT_VEHTYPE" vaporized=""/>
    <tripinfo id="61" depart="168.00" departLane="-1to0_0" departPos="0.10" departSpeed="0.00" departDelay="107.00" arrival="551.00" arrivalLane="5to-5_0" arrivalPos="0.10" arrivalSpeed="6.48" duration="383.00" routeLength="4779.33" waitSteps="0" timeLoss="26.09" rerouteNo="20" devices="tripinfo_61 routing_61" vType="DEFAULT_VEHTYPE" vaporized=""/>
    <tripinfo id="62" depart="171.00" departLane="-1to0_0" departPos="0.10" departSpeed="0.00" departDelay="109.00" arrival="555.00" arrivalLane="5to-5_0" arrivalPos="0.10" arrivalSpeed="8.46" duration="384.00" routeLength="4779.33" waitSteps="0" timeLoss="27.17" rerouteNo="20" devices="tripinfo_62 routing_62" vType="DEFAULT_VEHTYPE" vaporized=""/>
    <tripinfo id="63" depart="174.00" departLane="-1to0_0" departPos="0.10" departSpeed="0.00" departDelay="111.00" arrival="558.00" arrivalLane="5to-5_0" arrivalPos="0.10" arrivalSpeed="7.40" duration="384.00" routeLength="4779.33" waitSteps="0" timeLoss="27.15" rerouteNo="20" devices="tripinfo_63 routing_63" vType="DEFAULT_VEHTYPE" vaporized=""/>
    <tripinfo id="64" depart="177.00" departLane="-1to0_0" departPos="0.10" departSpeed="0.00" departDelay="113.00" arrival="562.00" arrivalLane="5to-5_0" arrivalPos="0.10" arrivalSpeed="6.58" duration="385.00" routeLength="4779.33" waitSteps="0" timeLoss="27.80" rerouteNo="19" devices="tripinfo_64 routing_64" vType="DEFAULT_VEHTYPE" vaporized=""/>
    <tripinfo id="65" depart="180.00" departLane="-1to0_0" departPos="0.10" departSpeed="0.00" departDelay="115.00" arrival="564.00" arrivalLane="5to-5_0" arrivalPos="0.10" arrivalSpeed="7.87" duration="384.00" routeLength="4779.33" waitSteps="0" timeLoss="27.15" rerouteNo="19" devices="tripinfo_65 routing_65" vType="DEFAULT_VEHTYPE" vaporized=""/>
    <tripinfo id="66" depart="183.00" departLane="-1to0_0" departPos="0.10" departSpeed="0.00" departDelay="117.00" arrival="567.00" arrivalLane="5to-5_0" arrivalPos="0.10" arrivalSpeed="7.25" duration="384.00" routeLength="4779.33" waitSteps="0" timeLoss="27.20" rerouteNo="19" devices="tripinfo_66 routing_66" vType="DEFAULT_VEHTYPE" vaporized=""/>
    <tripinfo id="67" depart="186.00" departLane="-1to0_0" departPos="0.10" departSpeed="0.00" departDelay="119.00" arrival="570.00" arrivalLane="5to-5_0" arrivalPos="0.10" arrivalSpeed="6.42" duration="384.00" routeLength="4779.33" waitSteps="0" timeLoss="27.17" rerouteNo="19" devices="tripinfo_67 routing_67" vType="DEFAULT_VEHTYPE" vaporized=""/>
    <tripinfo id="68" depart="189.00" departLane="-1to0_0" departPos="0.10" departSpeed="0.00" departDelay="121.00" arrival="573.00" arrivalLane="5to-5_0" arrivalPos="0.10" arrivalSpeed="8.40" duration="384.00" routeLength="4779.33" waitSteps="0" timeLoss="27.15" rerouteNo="18" devices="tripinfo_68 routing_68" vType="DEFAULT_VEHTYPE" vaporized=""/>
    <tripinfo id="69" depart="192.00" departLane="-1to0_0" departPos="0.10" departSpeed="0.00" departDelay="123.00" arrival="576.00" arrivalLane="5to-5_0" arrivalPos="0.10" arrivalSpeed="8.03" duration="384.00" routeLength="4779.33" waitSteps="0" timeLoss="27.22" rerouteNo="18" devices="tripinfo_69 routing_69" vType="DEFAULT_VEHTYPE" vaporized=""/>
    <tripinfo id="70" depart="195.00" departLane="-1to0_0" departPos="0.10" departSpeed="0.00" departDelay="125.00" arrival="579.00" arrivalLane="5to-5_0" arrivalPos="0.10" arrivalSpeed="8.91" duration="384.00" routeLength="4779.33" waitSteps="0" timeLoss="27.09" rerouteNo="18" devices="tripinfo_70 routing_70" vType="DEFAULT_VEHTYPE" vaporized=""/>
    <tripinfo id="71" depart="198.00" departLane="-1to0_0" departPos="0.10" departSpeed="0.00" departDelay="127.00" arrival="582.00" arrivalLane="5to-5_0" arrivalPos="0.10" arrivalSpeed="8.27" duration="384.00" routeLength="4779.33" waitSteps="0" timeLoss="27.11" rerouteNo="18" devices="tripinfo_71 routing_71" vType="DEFAULT_VEHTYPE" vaporized=""/>
    <tripinfo id="72" depart="201.00" departLane="-1to0_0" departPos="0.10" departSpeed="0.00" departDelay="129.00" arrival="585.00" arrivalLane="5to-5_0" arrivalPos="0.10" arrivalSpeed="5.57" duration="384.00" routeLength="4779.33" waitSteps="0" timeLoss="27.23" rerouteNo="17" devices="tripinfo_72 routing_72" vType="DEFAULT_VEHTYPE" vaporized=""/>
    <tripinfo id="73" depart="204.00" departLane="-1to0_0" departPos="0.10" departSpeed="0.00" departDelay="131.00" arrival="588.00" arrivalLane="5to-5_0" arrivalPos="0.10" arrivalSpeed="6.11" duration="384.00" routeLength="4779.33" waitSteps="0" timeLoss="27.14" rerouteNo="17" devices="tripinfo_73 routing_73" vType="DEFAULT_VEHTYPE" vaporized=""/>
    <tripinfo id="74" depart="207.00" departLane="-1to0_0" departPos="0.10" departSpeed="0.00" departDelay="133.00" arrival="590.00" arrivalLane="5to-5_0" arrivalPos="0.10" arrivalSpeed="8.71" duration="383.00" routeLength="4779.33" waitSteps="0" timeLoss="26.21" rerouteNo="17" devices="tripinfo_74 routing_74" vType="DEFAULT_VEHTYPE" vaporized=""/>
    <tripinfo id="75" depart="210.00" departLane="-1to0_0" departPos="0.10" departSpeed="0.00" departDelay="135.00" arrival="593.00" arrivalLane="5to-5_0" arrivalPos="0.10" arrivalSpeed="6.53" duration="383.00" routeLength="4779.33" waitSteps="0" timeLoss="26.23" rerouteNo="17" devices="tripinfo_75 routing_75" vType="DEFAULT_VEHTYPE" vaporized=""/>
    <tripinfo id="76" depart="213.00" departLane="-1to0_0" departPos="0.10" departSpeed="0.00" departDelay="137.00" arrival="596.00" arrivalLane="5to-5_0" arrivalPos="0.10" arrivalSpeed="6.68" duration="383.00" routeLength="4779.33" waitSteps="0" timeLoss="26.08" rerouteNo="16" devices="tripinfo_76 routing_76" vType="DEFAULT_VEHTYPE" vaporized=""/>
    <tripinfo id="77" depart="216.00" departLane="-1to0_0" departPos="0.10" departSpeed="0.00" departDelay="139.00" arrival="599.00" arrivalLane="5to-5_0" arrivalPos="0.10" arrivalSpeed="7.11" duration="383.00" routeLength="4779.33" waitSteps="0" timeLoss="26.13" rerouteNo="16" devices="tripinfo_77 routing_77" vType="DEFAULT_VEHTYPE" vaporized=""/>
    <tripinfo id="78" depart="219.00" departLane="-1to0_0" departPos="0.10" departSpeed="0.00" departDelay="141.00" arrival="601.00" arrivalLane="5to-5_0" arrivalPos="0.10" arrivalSpeed="9.43" duration="382.00" routeLength="4779.33" waitSteps="0" timeLoss="25.15" rerouteNo="16" devices="tripinfo_78 routing_78" vType="DEFAULT_VEHTYPE" vaporized=""/>
    <tripinfo id="79" depart="222.00" departLane="-1to0_0" departPos="0.10" departSpeed="0.00" departDelay="143.00" arrival="604.00" arrivalLane="5to-5_0" arrivalPos="0.10" arrivalSpeed="10.87" duration="382.00" routeLength="4779.33" waitSteps="0" timeLoss="25.07" rerouteNo="16" devices="tripinfo_79 routing_79" vType="DEFAULT_VEHTYPE" vaporized=""/>
    <tripinfo id="80" depart="225.00" departLane="-1to0_0" departPos="0.10" departSpeed="0.00" departDelay="145.00" arrival="608.00" arrivalLane="5to-5_0" arrivalPos="0.10" arrivalSpeed="8.48" duration="383.00" routeLength="4779.33" waitSteps="0" timeLoss="25.62" rerouteNo="15" devices="tripinfo_80 routing_80" vType="DEFAULT_VEHTYPE" vaporized=""/>
    <tripinfo id="81" depart="228.00" departLane="-1to0_0" departPos="0.10" departSpeed="0.00" departDelay="147.00" arrival="610.00" arrivalLane="5to-5_0" arrivalPos="0.10" arrivalSpeed="8.97" duration="382.00" routeLength="4779.33" waitSteps="0" timeLoss="25.17" rerouteNo="15" devices="tripinfo_81 routing_81" vType="DEFAULT_VEHTYPE" vaporized=""/>