<?xml version="1.0" encoding="UTF-8"?>

<!-- generated on 10/04/16 16:40:02 by SUMO Version 0.27.1
<?xml version="1.0" encoding="UTF-8"?>

<configuration xmlns:xsi="http://www.w3.org/2001/XMLSchema-instance" xsi:noNamespaceSchemaLocation="http://sumo.dlr.de/xsd/sumoConfiguration.xsd">

    <input>
        <net-file value="../config/../network/simple.net.xml"/>
        <route-files value="../config/../trips/trip.xml"/>
        <additional-files value="../config/additional.xml"/>
    </input>

    <output>
        <summary-output value="../config/../output/summary.xml"/>
        <tripinfo-output value="../output/tripinfo.xml"/>
    </output>

    <report>
        <log value="../config/../output/report.xml"/>
    </report>

</configuration>
-->

<tripinfos xmlns:xsi="http://www.w3.org/2001/XMLSchema-instance" xsi:noNamespaceSchemaLocation="http://sumo.dlr.de/xsd/tripinfo_file.xsd">
    <tripinfo id="0" depart="0.00" departLane="-1to0_0" departPos="0.10" departSpeed="0.00" departDelay="0.00" arrival="224.00" arrivalLane="5to-5_0" arrivalPos="0.10" arrivalSpeed="8.18" duration="224.00" routeLength="2801.05" waitSteps="0" timeLoss="14.44" rerouteNo="1" devices="tripinfo_0 routing_0" vType="DEFAULT_VEHTYPE" vaporized=""/>
    <tripinfo id="2" depart="5.00" departLane="-1to0_0" departPos="0.10" departSpeed="0.00" departDelay="3.00" arrival="228.00" arrivalLane="5to-5_0" arrivalPos="0.10" arrivalSpeed="12.70" duration="223.00" routeLength="2801.51" waitSteps="0" timeLoss="13.42" rerouteNo="2" devices="tripinfo_2 routing_2" vType="DEFAULT_VEHTYPE" vaporized=""/>
    <tripinfo id="3" depart="8.00" departLane="-1to0_0" departPos="0.10" departSpeed="0.00" departDelay="5.00" arrival="231.00" arrivalLane="5to-5_0" arrivalPos="0.10" arrivalSpeed="12.33" duration="223.00" routeLength="2801.51" waitSteps="0" timeLoss="13.46" rerouteNo="2" devices="tripinfo_3 routing_3" vType="DEFAULT_VEHTYPE" vaporized=""/>
    <tripinfo id="1" depart="3.00" departLane="-1to0_0" departPos="0.10" departSpeed="0.00" departDelay="2.00" arrival="233.00" arrivalLane="5to-5_0" arrivalPos="0.10" arrivalSpeed="4.62" duration="230.00" routeLength="2801.05" waitSteps="3" timeLoss="20.81" rerouteNo="1" devices="tripinfo_1 routing_1" vType="DEFAULT_VEHTYPE" vaporized=""/>
    <tripinfo id="4" depart="10.00" departLane="-1to0_0" departPos="0.10" departSpeed="0.00" departDelay="6.00" arrival="236.00" arrivalLane="5to-5_0" arrivalPos="0.10" arrivalSpeed="7.44" duration="226.00" routeLength="2801.05" waitSteps="0" timeLoss="16.49" rerouteNo="2" devices="tripinfo_4 routing_4" vType="DEFAULT_VEHTYPE" vaporized=""/>
    <tripinfo id="6" depart="16.00" departLane="-1to0_0" departPos="0.10" departSpeed="0.00" departDelay="10.00" arrival="238.00" arrivalLane="5to-5_0" arrivalPos="0.10" arrivalSpeed="13.35" duration="222.00" routeLength="2801.51" waitSteps="0" timeLoss="12.39" rerouteNo="3" devices="tripinfo_6 routing_6" vType="DEFAULT_VEHTYPE" vaporized=""/>
    <tripinfo id="5" depart="13.00" departLane="-1to0_0" departPos="0.10" departSpeed="0.00" departDelay="8.00" arrival="240.00" arrivalLane="5to-5_0" arrivalPos="0.10" arrivalSpeed="4.14" duration="227.00" routeLength="2801.05" waitSteps="0" timeLoss="17.86" rerouteNo="2" devices="tripinfo_5 routing_5" vType="DEFAULT_VEHTYPE" vaporized=""/>
    <tripinfo id="7" depart="19.00" departLane="-1to0_0" departPos="0.10" departSpeed="0.00" departDelay="12.00" arrival="244.00" arrivalLane="5to-5_0" arrivalPos="0.10" arrivalSpeed="7.14" duration="225.00" routeLength="2801.05" waitSteps="0" timeLoss="15.51" rerouteNo="4" devices="tripinfo_7 routing_7" vType="DEFAULT_VEHTYPE" vaporized=""/>
    <tripinfo id="9" depart="24.00" departLane="-1to0_0" departPos="0.10" departSpeed="0.00" departDelay="15.00" arrival="246.00" arrivalLane="5to-5_0" arrivalPos="0.10" arrivalSpeed="12.38" duration="222.00" routeLength="2801.51" waitSteps="0" timeLoss="12.84" rerouteNo="4" devices="tripinfo_9 routing_9" vType="DEFAULT_VEHTYPE" vaporized=""/>
    <tripinfo id="10" depart="27.00" departLane="-1to0_0" departPos="0.10" departSpeed="0.00" departDelay="17.00" arrival="249.00" arrivalLane="5to-5_0" arrivalPos="0.10" arrivalSpeed="12.87" duration="222.00" routeLength="2801.51" waitSteps="0" timeLoss="12.63" rerouteNo="4" devices="tripinfo_10 routing_10" vType="DEFAULT_VEHTYPE" vaporized=""/>
    <tripinfo id="8" depart="22.00" departLane="-1to0_0" departPos="0.10" departSpeed="0.00" departDelay="14.00" arrival="251.00" arrivalLane="5to-5_0" arrivalPos="0.10" arrivalSpeed="4.11" duration="229.00" routeLength="2801.05" waitSteps="1" timeLoss="19.85" rerouteNo="4" devices="tripinfo_8 routing_8" vType="DEFAULT_VEHTYPE" vaporized=""/>
    <tripinfo id="11" depart="29.00" departLane="-1to0_0" departPos="0.10" departSpeed="0.00" departDelay="18.00" arrival="253.00" arrivalLane="5to-5_0" arrivalPos="0.10" arrivalSpeed="8.71" duration="224.00" routeLength="2801.05" waitSteps="0" timeLoss="14.89" rerouteNo="5" devices="tripinfo_11 routing_11" vType="DEFAULT_VEHTYPE" vaporized=""/>
    <tripinfo id="13" depart="34.00" departLane="-1to0_0" departPos="0.10" departSpeed="0.00" departDelay="21.00" arrival="256.00" arrivalLane="5to-5_0" arrivalPos="0.10" arrivalSpeed="12.84" duration="222.00" routeLength="2801.51" waitSteps="0" timeLoss="12.85" rerouteNo="6" devices="tripinfo_13 routing_13" vType="DEFAULT_VEHTYPE" vaporized=""/>
    <tripinfo id="12" depart="32.00" departLane="-1to0_0" departPos="0.10" departSpeed="0.00" departDelay="20.00" arrival="258.00" arrivalLane="5to-5_0" arrivalPos="0.10" arrivalSpeed="5.99" duration="226.00" routeLength="2801.05" waitSteps="0" timeLoss="16.62" rerouteNo="5" devices="tripinfo_12 routing_12" vType="DEFAULT_VEHTYPE" vaporized=""/>
    <tripinfo id="14" depart="37.00" departLane="-1to0_0" departPos="0.10" departSpeed="0.00" departDelay="23.00" arrival="261.00" arrivalLane="5to-5_0" arrivalPos="0.10" arrivalSpeed="8.42" duration="224.00" routeLength="2801.05" waitSteps="0" timeLoss="14.83" rerouteNo="7" devices="tripinfo_14 routing_14" vType="DEFAULT_VEHTYPE" vaporized=""/>
    <tripinfo id="15" depart="40.00" departLane="-1to0_0" departPos="0.10" departSpeed="0.00" departDelay="25.00" arrival="264.00" arrivalLane="5to-5_0" arrivalPos="0.10" arrivalSpeed="8.64" duration="224.00" routeLength="2801.05" waitSteps="0" timeLoss="14.92" rerouteNo="7" devices="tripinfo_15 routing_15" vType="DEFAULT_VEHTYPE" vaporized=""/>
    <tripinfo id="16" depart="43.00" departLane="-1to0_0" departPos="0.10" departSpeed="0.00" departDelay="27.00" arrival="266.00" arrivalLane="5to-5_0" arrivalPos="0.10" arrivalSpeed="12.46" duration="223.00" routeLength="2801.51" waitSteps="0" timeLoss="13.95" rerouteNo="7" devices="tripinfo_16 routing_16" vType="DEFAULT_VEHTYPE" vaporized=""/>
    <tripinfo id="17" depart="46.00" departLane="-1to0_0" departPos="0.10" departSpeed="0.00" departDelay="29.00" arrival="269.00" arrivalLane="5to-5_0" arrivalPos="0.10" arrivalSpeed="7.03" duration="223.00" routeLength="2801.05" waitSteps="0" timeLoss="13.88" rerouteNo="8" devices="tripinfo_17 routing_17" vType="DEFAULT_VEHTYPE" vaporized=""/>
    <tripinfo id="19" depart="51.00" departLane="-1to0_0" departPos="0.10" departSpeed="0.00" departDelay="32.00" arrival="274.00" arrivalLane="5to-5_0" arrivalPos="0.10" arrivalSpeed="13.32" duration="223.00" routeLength="2801.51" waitSteps="0" timeLoss="13.48" rerouteNo="8" devices="tripinfo_19 routing_19" vType="DEFAULT_VEHTYPE" vaporized=""/>
    <tripinfo id="18" depart="49.00" departLane="-1to0_0" departPos="0.10" departSpeed="0.00" departDelay="31.00" arrival="276.00" arrivalLane="5to-5_0" arrivalPos="0.10" arrivalSpeed="4.83" duration="227.00" routeLength="2801.05" waitSteps="0" timeLoss="17.80" rerouteNo="8" devices="tripinfo_18 routing_18" vType="DEFAULT_VEHTYPE" vaporized=""/>
    <tripinfo id="20" depart="54.00" departLane="-1to0_0" departPos="0.10" departSpeed="0.00" departDelay="34.00" arrival="278.00" arrivalLane="5to-5_0" arrivalPos="0.10" arrivalSpeed="7.23" duration="224.00" routeLength="2801.05" waitSteps="0" timeLoss="14.98" rerouteNo="9" devices="tripinfo_20 routing_20" vType="DEFAULT_VEHTYPE" vaporized=""/>
    <tripinfo id="22" depart="59.00" departLane="-1to0_0" departPos="0.10" departSpeed="0.00" departDelay="37.00" arrival="282.00" arrivalLane="5to-5_0" arrivalPos="0.10" arrivalSpeed="12.77" duration="223.00" routeLength="2801.51" waitSteps="0" timeLoss="13.06" rerouteNo="10" devices="tripinfo_22 routing_22" vType="DEFAULT_VEHTYPE" vaporized=""/>
    <tripinfo id="21" depart="57.00" departLane="-1to0_0" departPos="0.10" departSpeed="0.00" departDelay="36.00" arrival="284.00" arrivalLane="5to-5_0" arrivalPos="0.10" arrivalSpeed="4.48" duration="227.00" routeLength="2801.05" waitSteps="0" timeLoss="17.86" rerouteNo="9" devices="tripinfo_21 routing_21" vType="DEFAULT_VEHTYPE" vaporized=""/>
    <tripinfo id="23" depart="62.00" departLane="-1to0_0" departPos="0.10" departSpeed="0.00" departDelay="39.00" arrival="287.00" arrivalLane="5to-5_0" arrivalPos="0.10" arrivalSpeed="5.79" duration="225.00" routeLength="2801.05" waitSteps="0" timeLoss="15.92" rerouteNo="10" devices="tripinfo_23 routing_23" vType="DEFAULT_VEHTYPE" vaporized=""/>
    <tripinfo id="25" depart="67.00" departLane="-1to0_0" departPos="0.10" departSpeed="0.00" departDelay="42.00" arrival="290.00" arrivalLane="5to-5_0" arrivalPos="0.10" arrivalSpeed="12.80" duration="223.00" routeLength="2801.51" waitSteps="0" timeLoss="13.63" rerouteNo="11" devices="tripinfo_25 routing_25" vType="DEFAULT_VEHTYPE" vaporized=""/>
    <tripinfo id="24" depart="65.00" departLane="-1to0_0" departPos="0.10" departSpeed="0.00" departDelay="41.00" arrival="292.00" arrivalLane="5to-5_0" arrivalPos="0.10" arrivalSpeed="4.14" duration="227.00" routeLength="2801.05" waitSteps="0" timeLoss="17.88" rerouteNo="10" devices="tripinfo_24 routing_24" vType="DEFAULT_VEHTYPE" vaporized=""/>
    <tripinfo id="26" depart="70.00" departLane="-1to0_0" departPos="0.10" departSpeed="0.00" departDelay="44.00" arrival="294.00" arrivalLane="5to-5_0" arrivalPos="0.10" arrivalSpeed="6.41" duration="224.00" routeLength="2801.05" waitSteps="0" timeLoss="14.99" rerouteNo="12" devices="tripinfo_26 routing_26" vType="DEFAULT_VEHTYPE" vaporized=""/>
    <tripinfo id="28" depart="75.00" departLane="-1to0_0" departPos="0.10" departSpeed="0.00" departDelay="47.00" arrival="298.00" arrivalLane="5to-5_0" arrivalPos="0.10" arrivalSpeed="12.50" duration="223.00" routeLength="2801.51" waitSteps="0" timeLoss="13.88" rerouteNo="12" devices="tripinfo_28 routing_28" vType="DEFAULT_VEHTYPE" vaporized=""/>
    <tripinfo id="27" depart="73.00" departLane="-1to0_0" departPos="0.10" departSpeed="0.00" departDelay="46.00" arrival="300.00" arrivalLane="5to-5_0" arrivalPos="0.10" arrivalSpeed="4.52" duration="227.00" routeLength="2801.05" waitSteps="0" timeLoss="17.82" rerouteNo="12" devices="tripinfo_27 routing_27" vType="DEFAULT_VEHTYPE" vaporized=""/>
    <tripinfo id="29" depart="78.00" departLane="-1to0_0" departPos="0.10" departSpeed="0.00" departDelay="49.00" arrival="302.00" arrivalLane="5to-5_0" arrivalPos="0.10" arrivalSpeed="7.73" duration="224.00" routeLength="2801.05" waitSteps="0" timeLoss="15.00" rerouteNo="13" devices="tripinfo_29 routing_29" vType="DEFAULT_VEHTYPE" vaporized=""/>
    <tripinfo id="31" depart="83.00" departLane="-1to0_0" departPos="0.10" departSpeed="0.00" departDelay="52.00" arrival="306.00" arrivalLane="5to-5_0" arrivalPos="0.10" arrivalSpeed="12.86" duration="223.00" routeLength="2801.51" waitSteps="0" timeLoss="13.27" rerouteNo="14" devices="tripinfo_31 routing_31" vType="DEFAULT_VEHTYPE" vaporized=""/>
    <tripinfo id="32" depart="86.00" departLane="-1to0_0" departPos="0.10" departSpeed="0.00" departDelay="54.00" arrival="309.00" arrivalLane="5to-5_0" arrivalPos="0.10" arrivalSpeed="12.41" duration="223.00" routeLength="2801.51" waitSteps="0" timeLoss="13.60" rerouteNo="14" devices="tripinfo_32 routing_32" vType="DEFAULT_VEHTYPE" vaporized=""/>
    <tripinfo id="30" depart="81.00" departLane="-1to0_0" departPos="0.10" departSpeed="0.00" departDelay="51.00" arrival="311.00" arrivalLane="5to-5_0" arrivalPos="0.10" arrivalSpeed="3.64" duration="230.00" routeLength="2801.05" waitSteps="3" timeLoss="20.89" rerouteNo="13" devices="tripinfo_30 routing_30" vType="DEFAULT_VEHTYPE" vaporized=""/>
    <tripinfo id="33" depart="89.00" departLane="-1to0_0" departPos="0.10" departSpeed="0.00" departDelay="56.00" arrival="313.00" arrivalLane="5to-5_0" arrivalPos="0.10" arrivalSpeed="8.82" duration="224.00" routeLength="2801.05" waitSteps="0" timeLoss="14.94" rerouteNo="15" devices="tripinfo_33 routing_33" vType="DEFAULT_VEHTYPE" vaporized=""/>
    <tripinfo id="34" depart="92.00" departLane="-1to0_0" departPos="0.10" departSpeed="0.00" departDelay="58.00" arrival="316.00" arrivalLane="5to-5_0" arrivalPos="0.10" arrivalSpeed="7.51" duration="224.00" routeLength="2801.05" waitSteps="0" timeLoss="14.90" rerouteNo="14" devices="tripinfo_34 routing_34" vType="DEFAULT_VEHTYPE" vaporized=""/>
    <tripinfo id="36" depart="97.00" departLane="-1to0_0" departPos="0.10" departSpeed="0.00" departDelay="61.00" arrival="320.00" arrivalLane="5to-5_0" arrivalPos="0.10" arrivalSpeed="13.06" duration="223.00" routeLength="2801.51" waitSteps="0" timeLoss="13.09" rerouteNo="15" devices="tripinfo_36 routing_36" vType="DEFAULT_VEHTYPE" vaporized=""/>
    <tripinfo id="37" depart="99.00" departLane="-1to0_0" departPos="0.10" departSpeed="0.00" departDelay="62.00" arrival="324.00" arrivalLane="5to-5_0" arrivalPos="0.10" arrivalSpeed="12.92" duration="225.00" routeLength="2801.51" waitSteps="0" timeLoss="15.06" rerouteNo="14" devices="tripinfo_37 routing_37" vType="DEFAULT_VEHTYPE" vaporized=""/>
    <tripinfo id="35" depart="95.00" departLane="-1to0_0" departPos="0.10" departSpeed="0.00" departDelay="60.00" arrival="326.00" arrivalLane="5to-5_0" arrivalPos="0.10" arrivalSpeed="4.44" duration="231.00" routeLength="2801.05" waitSteps="5" timeLoss="21.83" rerouteNo="14" devices="tripinfo_35 routing_35" vType="DEFAULT_VEHTYPE" vaporized=""/>
    <tripinfo id="40" depart="107.00" departLane="-1to0_0" departPos="0.10" departSpeed="0.00" departDelay="67.00" arrival="330.00" arrivalLane="5to-5_0" arrivalPos="0.10" arrivalSpeed="12.29" duration="223.00" routeLength="2801.51" waitSteps="0" timeLoss="13.49" rerouteNo="16" devices="tripinfo_40 routing_40" vType="DEFAULT_VEHTYPE" vaporized=""/>
    <tripinfo id="41" depart="110.00" departLane="-1to0_0" departPos="0.10" departSpeed="0.00" departDelay="69.00" arrival="333.00" arrivalLane="5to-5_0" arrivalPos="0.10" arrivalSpeed="12.25" duration="223.00" routeLength="2801.51" waitSteps="0" timeLoss="13.66" rerouteNo="15" devices="tripinfo_41 routing_41" vType="DEFAULT_VEHTYPE" vaporized=""/>
    <tripinfo id="38" depart="102.00" departLane="-1to0_0" departPos="0.10" departSpeed="0.00" departDelay="64.00" arrival="335.00" arrivalLane="5to-5_0" arrivalPos="0.10" arrivalSpeed="4.96" duration="233.00" routeLength="2801.05" waitSteps="4" timeLoss="23.78" rerouteNo="15" devices="tripinfo_38 routing_38" vType="DEFAULT_VEHTYPE" vaporized=""/>
    <tripinfo id="39" depart="105.00" departLane="-1to0_0" departPos="0.10" departSpeed="0.00" departDelay="66.00" arrival="337.00" arrivalLane="5to-5_0" arrivalPos="0.10" arrivalSpeed="6.00" duration="232.00" routeLength="2801.05" waitSteps="3" timeLoss="22.96" rerouteNo="15" devices="tripinfo_39 routing_39" vType="DEFAULT_VEHTYPE" vaporized=""/>
    <tripinfo id="44" depart="118.00" departLane="-1to0_0" departPos="0.10" departSpeed="0.00" departDelay="74.00" arrival="340.00" arrivalLane="5to-5_0" arrivalPos="0.10" arrivalSpeed="12.90" duration="222.00" routeLength="2801.51" waitSteps="0" timeLoss="12.77" rerouteNo="17" devices="tripinfo_44 routing_44" vType="DEFAULT_VEHTYPE" vaporized=""/>
    <tripinfo id="42" depart="112.00" departLane="-1to0_0" departPos="0.10" departSpeed="0.00" departDelay="70.00" arrival="342.00" arrivalLane="5to-5_0" arrivalPos="0.10" arrivalSpeed="4.57" duration="230.00" routeLength="2801.05" waitSteps="0" timeLoss="20.83" rerouteNo="16" devices="tripinfo_42 routing_42" vType="DEFAULT_VEHTYPE" vaporized=""/>
    <tripinfo id="43" depart="115.00" departLane="-1to0_0" departPos="0.10" departSpeed="0.00" departDelay="72.00" arrival="344.00" arrivalLane="5to-5_0" arrivalPos="0.10" arrivalSpeed="6.94" duration="229.00" routeLength="2801.05" waitSteps="0" timeLoss="19.89" rerouteNo="16" devices="tripinfo_43 routing_43" vType="DEFAULT_VEHTYPE" vaporized=""/>
    <tripinfo id="45" depart="121.00" departLane="-1to0_0" departPos="0.10" departSpeed="0.00" departDelay="76.00" arrival="346.00" arrivalLane="5to-5_0" arrivalPos="0.10" arrivalSpeed="7.93" duration="225.00" routeLength="2801.05" waitSteps="0" timeLoss="15.94" rerouteNo="18" devices="tripinfo_45 routing_45" vType="DEFAULT_VEHTYPE" vaporized=""/>
    <tripinfo id="47" depart="126.00" departLane="-1to0_0" departPos="0.10" departSpeed="0.00" departDelay="79.00" arrival="349.00" arrivalLane="5to-5_0" arrivalPos="0.10" arrivalSpeed="12.20" duration="223.00" routeLength="2801.51" waitSteps="0" timeLoss="13.18" rerouteNo="18" devices="tripinfo_47 routing_47" vType="DEFAULT_VEHTYPE" vaporized=""/>
    <tripinfo id="48" depart="129.00" departLane="-1to0_0" departPos="0.10" departSpeed="0.00" departDelay="81.00" arrival="352.00" arrivalLane="5to-5_0" arrivalPos="0.10" arrivalSpeed="12.86" duration="223.00" routeLength="2801.51" waitSteps="0" timeLoss="13.68" rerouteNo="18" devices="tripinfo_48 routing_48" vType="DEFAULT_VEHTYPE" vaporized=""/>
    <tripinfo id="46" depart="124.00" departLane="-1to0_0" departPos="0.10" departSpeed="0.00" departDelay="78.00" arrival="354.00" arrivalLane="5to-5_0" arrivalPos="0.10" arrivalSpeed="3.83" duration="230.00" routeLength="2801.05" waitSteps="2" timeLoss="20.87" rerouteNo="17" devices="tripinfo_46 routing_46" vType="DEFAULT_VEHTYPE" vaporized=""/>
    <tripinfo id="49" depart="131.00" departLane="-1to0_0" departPos="0.10" departSpeed="0.00" departDelay="82.00" arrival="356.00" arrivalLane="5to-5_0" arrivalPos="0.10" arrivalSpeed="6.98" duration="225.00" routeLength="2801.05" waitSteps="0" timeLoss="15.90" rerouteNo="19" devices="tripinfo_49 routing_49" vType="DEFAULT_VEHTYPE" vaporized=""/>
    <tripinfo id="50" depart="134.00" departLane="-1to0_0" departPos="0.10" departSpeed="0.00" departDelay="84.00" arrival="359.00" arrivalLane="5to-5_0" arrivalPos="0.10" arrivalSpeed="5.99" duration="225.00" routeLength="2801.05" waitSteps="0" timeLoss="15.97" rerouteNo="19" devices="tripinfo_50 routing_50" vType="DEFAULT_VEHTYPE" vaporized=""/>
    <tripinfo id="52" depart="139.00" departLane="-1to0_0" departPos="0.10" departSpeed="0.00" departDelay="87.00" arrival="362.00" arrivalLane="5to-5_0" arrivalPos="0.10" arrivalSpeed="12.20" duration="223.00" routeLength="2801.51" waitSteps="0" timeLoss="13.80" rerouteNo="19" devices="tripinfo_52 routing_52" vType="DEFAULT_VEHTYPE" vaporized=""/>
    <tripinfo id="53" depart="142.00" departLane="-1to0_0" departPos="0.10" departSpeed="0.00" departDelay="89.00" arrival="365.00" arrivalLane="5to-5_0" arrivalPos="0.10" arrivalSpeed="12.58" duration="223.00" routeLength="2801.51" waitSteps="0" timeLoss="13.38" rerouteNo="19" devices="tripinfo_53 routing_53" vType="DEFAULT_VEHTYPE" vaporized=""/>
    <tripinfo id="51" depart="137.00" departLane="-1to0_0" departPos="0.10" departSpeed="0.00" departDelay="86.00" arrival="367.00" arrivalLane="5to-5_0" arrivalPos="0.10" arrivalSpeed="3.30" duration="230.00" routeLength="2801.05" waitSteps="3" timeLoss="20.98" rerouteNo="18" devices="tripinfo_51 routing_51" vType="DEFAULT_VEHTYPE" vaporized=""/>
    <tripinfo id="54" depart="145.00" departLane="-1to0_0" departPos="0.10" departSpeed="0.00" departDelay="91.00" arrival="370.00" arrivalLane="5to-5_0" arrivalPos="0.10" arrivalSpeed="9.45" duration="225.00" routeLength="2801.05" waitSteps="0" timeLoss="15.34" rerouteNo="19" devices="tripinfo_54 routing_54" vType="DEFAULT_VEHTYPE" vaporized=""/>
    <tripinfo id="56" depart="150.00" departLane="-1to0_0" departPos="0.10" departSpeed="0.00" departDelay="94.00" arrival="374.00" arrivalLane="5to-5_0" arrivalPos="0.10" arrivalSpeed="13.12" duration="224.00" routeLength="2801.51" waitSteps="0" timeLoss="14.36" rerouteNo="20" devices="tripinfo_56 routing_56" vType="DEFAULT_VEHTYPE" vaporized=""/>
    <tripinfo id="55" depart="148.00" departLane="-1to0_0" departPos="0.10" departSpeed="0.00" departDelay="93.00" arrival="376.00" arrivalLane="5to-5_0" arrivalPos="0.10" arrivalSpeed="4.34" duration="228.00" routeLength="2801.05" waitSteps="1" timeLoss="18.86" rerouteNo="19" devices="tripinfo_55 routing_55" vType="DEFAULT_VEHTYPE" vaporized=""/>
    <tripinfo id="57" depart="153.00" departLane="-1to0_0" departPos="0.10" departSpeed="0.00" departDelay="96.00" arrival="378.00" arrivalLane="5to-5_0" arrivalPos="0.10" arrivalSpeed="7.55" duration="225.00" routeLength="2801.05" waitSteps="0" timeLoss="15.89" rerouteNo="21" devices="tripinfo_57 routing_57" vType="DEFAULT_VEHTYPE" vaporized=""/>
    <tripinfo id="60" depart="161.00" departLane="-1to0_0" departPos="0.10" departSpeed="0.00" departDelay="101.00" arrival="383.00" arrivalLane="5to-5_0" arrivalPos="0.10" arrivalSpeed="12.76" duration="222.00" routeLength="2801.51" waitSteps="0" timeLoss="12.64" rerouteNo="21" devices="tripinfo_60 routing_60" vType="DEFAULT_VEHTYPE" vaporized=""/>
    <tripinfo id="58" depart="156.00" departLane="-1to0_0" departPos="0.10" departSpeed="0.00" departDelay="98.00" arrival="385.00" arrivalLane="5to-5_0" arrivalPos="0.10" arrivalSpeed="3.57" duration="229.00" routeLength="2801.05" waitSteps="2" timeLoss="19.95" rerouteNo="21" devices="tripinfo_58 routing_58" vType="DEFAULT_VEHTYPE" vaporized=""/>
    <tripinfo id="61" depart="164.00" departLane="-1to0_0" departPos="0.10" departSpeed="0.00" departDelay="103.00" arrival="387.00" arrivalLane="5to-5_0" arrivalPos="0.10" arrivalSpeed="12.65" duration="223.00" routeLength="2801.51" waitSteps="0" timeLoss="13.83" rerouteNo="21" devices="tripinfo_61 routing_61" vType="DEFAULT_VEHTYPE" vaporized=""/>
    <tripinfo id="59" depart="159.00" departLane="-1to0_0" departPos="0.10" departSpeed="0.00" departDelay="100.00" arrival="388.00" arrivalLane="5to-5_0" arrivalPos="0.10" arrivalSpeed="5.35" duration="229.00" routeLength="2801.05" waitSteps="2" timeLoss="19.94" rerouteNo="20" devices="tripinfo_59 routing_59" vType="DEFAULT_VEHTYPE" vaporized=""/>
    <tripinfo id="62" depart="167.00" departLane="-1to0_0" departPos="0.10" departSpeed="0.00" departDelay="105.00" arrival="391.00" arrivalLane="5to-5_0" arrivalPos="0.10" arrivalSpeed="8.26" duration="224.00" routeLength="2801.05" waitSteps="0" timeLoss="14.92" rerouteNo="21" devices="tripinfo_62 routing_62" vType="DEFAULT_VEHTYPE" vaporized=""/>
    <tripinfo id="64" depart="173.00" departLane="-1to0_0" departPos="0.10" departSpeed="0.00" departDelay="109.00" arrival="396.00" arrivalLane="5to-5_0" arrivalPos="0.10" arrivalSpeed="12.58" duration="223.00" routeLength="2801.51" waitSteps="0" timeLoss="13.24" rerouteNo="22" devices="tripinfo_64 routing_64" vType="DEFAULT_VEHTYPE" vaporized=""/>
    <tripinfo id="63" depart="170.00" departLane="-1to0_0" departPos="0.10" departSpeed="0.00" departDelay="107.00" arrival="398.00" arrivalLane="5to-5_0" arrivalPos="0.10" arrivalSpeed="4.59" duration="228.00" routeLength="2801.05" waitSteps="0" timeLoss="18.83" rerouteNo="21" devices="tripinfo_63 routing_63" vType="DEFAULT_VEHTYPE" vaporized=""/>
    <tripinfo id="65" depart="176.00" departLane="-1to0_0" departPos="0.10" departSpeed="0.00" departDelay="111.00" arrival="400.00" arrivalLane="5to-5_0" arrivalPos="0.10" arrivalSpeed="8.83" duration="224.00" routeLength="2801.05" waitSteps="0" timeLoss="14.95" rerouteNo="23" devices="tripinfo_65 routing_65" vType="DEFAULT_VEHTYPE" vaporized=""/>
    <tripinfo id="67" depart="181.00" departLane="-1to0_0" departPos="0.10" departSpeed="0.00" departDelay="114.00" arrival="404.00" arrivalLane="5to-5_0" arrivalPos="0.10" arrivalSpeed="12.48" duration="223.00" routeLength="2801.51" waitSteps="0" timeLoss="13.85" rerouteNo="23" devices="tripinfo_67 routing_67" vType="DEFAULT_VEHTYPE" vaporized=""/>
    <tripinfo id="68" depart="184.00" departLane="-1to0_0" departPos="0.10" departSpeed="0.00" departDelay="116.00" arrival="406.00" arrivalLane="5to-5_0" arrivalPos="0.10" arrivalSpeed="13.17" duration="222.00" routeLength="2801.51" waitSteps="0" timeLoss="12.98" rerouteNo="23" devices="tripinfo_68 routing_68" vType="DEFAULT_VEHTYPE" vaporized=""/>
    <tripinfo id="66" depart="179.00" departLane="-1to0_0" departPos="0.10" departSpeed="0.00" departDelay="113.00" arrival="408.00" arrivalLane="5to-5_0" arrivalPos="0.10" arrivalSpeed="3.63" duration="229.00" routeLength="2801.05" waitSteps="1" timeLoss="19.92" rerouteNo="22" devices="tripinfo_66 routing_66" vType="DEFAULT_VEHTYPE" vaporized=""/>
    <tripinfo id="69" depart="186.00" departLane="-1to0_0" departPos="0.10" departSpeed="0.00" departDelay="117.00" arrival="411.00" arrivalLane="5to-5_0" arrivalPos="0.10" arrivalSpeed="7.97" duration="225.00" routeLength="2801.05" waitSteps="0" timeLoss="15.46" rerouteNo="24" devices="tripinfo_69 routing_69" vType="DEFAULT_VEHTYPE" vaporized=""/>
    <tripinfo id="71" depart="191.00" departLane="-1to0_0" departPos="0.10" departSpeed="0.00" departDelay="120.00" arrival="415.00" arrivalLane="5to-5_0" arrivalPos="0.10" arrivalSpeed="12.74" duration="224.00" routeLength="2801.51" waitSteps="0" timeLoss="14.06" rerouteNo="24" devices="tripinfo_71 routing_71" vType="DEFAULT_VEHTYPE" vaporized=""/>
    <tripinfo id="70" depart="189.00" departLane="-1to0_0" departPos="0.10" departSpeed="0.00" departDelay="119.00" arrival="417.00" arrivalLane="5to-5_0" arrivalPos="0.10" arrivalSpeed="3.33" duration="228.00" routeLength="2801.05" waitSteps="1" timeLoss="18.95" rerouteNo="23" devices="tripinfo_70 routing_70" vType="DEFAULT_VEHTYPE" vaporized=""/>
    <tripinfo id="72" depart="194.00" departLane="-1to0_0" departPos="0.10" departSpeed="0.00" departDelay="122.00" arrival="420.00" arrivalLane="5to-5_0" arrivalPos="0.10" arrivalSpeed="8.34" duration="226.00" routeLength="2801.05" waitSteps="0" timeLoss="16.41" rerouteNo="25" devices="tripinfo_72 routing_72" vType="DEFAULT_VEHTYPE" vaporized=""/>
    <tripinfo id="74" depart="200.00" departLane="-1to0_0" departPos="0.10" departSpeed="0.00" departDelay="126.00" arrival="423.00" arrivalLane="5to-5_0" arrivalPos="0.10" arrivalSpeed="12.33" duration="223.00" routeLength="2801.51" waitSteps="0" timeLoss="13.24" rerouteNo="26" devices="tripinfo_74 routing_74" vType="DEFAULT_VEHTYPE" vaporized=""/>
    <tripinfo id="73" depart="197.00" departLane="-1to0_0" departPos="0.10" departSpeed="0.00" departDelay="124.00" arrival="425.00" arrivalLane="5to-5_0" arrivalPos="0.10" arrivalSpeed="4.14" duration="228.00" routeLength="2801.05" waitSteps="0" timeLoss="18.86" rerouteNo="25" devices="tripinfo_73 routing_73" vType="DEFAULT_VEHTYPE" vaporized=""/>
    <tripinfo id="75" depart="203.00" departLane="-1to0_0" departPos="0.10" departSpeed="0.00" departDelay="128.00" arrival="427.00" arrivalLane="5to-5_0" arrivalPos="0.10" arrivalSpeed="9.37" duration="224.00" routeLength="2801.05" waitSteps="0" timeLoss="14.88" rerouteNo="26" devices="tripinfo_75 routing_75" vType="DEFAULT_VEHTYPE" vaporized=""/>
    <tripinfo id="77" depart="209.00" departLane="-1to0_0" departPos="0.10" departSpeed="0.00" departDelay="132.00" arrival="431.00" arrivalLane="5to-5_0" arrivalPos="0.10" arrivalSpeed="12.84" duration="222.00" routeLength="2801.51" waitSteps="0" timeLoss="12.89" rerouteNo="27" devices="tripinfo_77 routing_77" vType="DEFAULT_VEHTYPE" vaporized=""/>
    <tripinfo id="76" depart="206.00" departLane="-1to0_0" departPos="0.10" departSpeed="0.00" departDelay="130.00" arrival="433.00" arrivalLane="5to-5_0" arrivalPos="0.10" arrivalSpeed="4.33" duration="227.00" routeLength="2801.05" waitSteps="0" timeLoss="17.85" rerouteNo="26" devices="tripinfo_76 routing_76" vType="DEFAULT_VEHTYPE" vaporized=""/>
    <tripinfo id="78" depart="212.00" departLane="-1to0_0" departPos="0.10" departSpeed="0.00" departDelay="134.00" arrival="436.00" arrivalLane="5to-5_0" arrivalPos="0.10" arrivalSpeed="7.66" duration="224.00" routeLength="2801.05" waitSteps="0" timeLoss="14.90" rerouteNo="27" devices="tripinfo_78 routing_78" vType="DEFAULT_VEHTYPE" vaporized=""/>
    <tripinfo id="80" depart="218.00" departLane="-1to0_0" departPos="0.10" departSpeed="0.00" departDelay="138.00" arrival="441.00" arrivalLane="5to-5_0" arrivalPos="0.10" arrivalSpeed="12.94" duration="223.00" routeLength="2801.51" waitSteps="0" timeLoss="13.62" rerouteNo="28" devices="tripinfo_80 routing_80" vType="DEFAULT_VEHTYPE" vaporized=""/>
    <tripinfo id="81" depart="221.00" departLane="-1to0_0" departPos="0.10" departSpeed="0.00" departDelay="140.00" arrival="445.00" arrivalLane="5to-5_0" arrivalPos="0.10" arrivalSpeed="12.65" duration="224.00" routeLength="2801.51" waitSteps="0" timeLoss="14.36" rerouteNo="28" devices="tripinfo_81 routing_81" vType="DEFAULT_VEHTYPE" vaporized=""/>
    <tripinfo id="79" depart="215.00" departLane="-1to0_0" departPos="0.10" departSpeed="0.00" departDelay="136.00" arrival="447.00" arrivalLane="5to-5_0" arrivalPos="0.10" arrivalSpeed="4.31" duration="232.00" routeLength="2801.05" waitSteps="4" timeLoss="22.87" rerouteNo="27" devices="tripinfo_79 routing_79" vType="DEFAULT_VEHTYPE" vaporized=""/>
    <tripinfo id="82" depart="224.00" departLane="-1to0_0" departPos="0.10" departSpeed="0.00" departDelay="142.00" arrival="450.00" arrivalLane="5to-5_0" arrivalPos="0.10" arrivalSpeed="8.07" duration="226.00" routeLength="2801.05" waitSteps="0" timeLoss="16.43" rerouteNo="28" devices="tripinfo_82 routing_82" vType="DEFAULT_VEHTYPE" vaporized=""/>