<?xml version="1.0" encoding="UTF-8"?>

<configuration xmlns:xsi="http://www.w3.org/2001/XMLSchema-instance" xsi:noNamespaceSchemaLocation="http://sumo.dlr.de/xsd/sumoConfiguration.xsd">

    <input>
        <net-file value="umassd.net.xml"/>
        <route-files value="../trips/trip.xml"/>
        <additional-files value="../trips/additional.xml"/>
    </input>

    <output>
        <summary-output value="summary.xml"/>
    </output>

    <report>
        <log value="sim_log.xml"/>
    </report>

</configuration>
