<?xml version="1.0" encoding="UTF-8"?>

<!-- generated on 04/25/18 17:08:29 by SUMO Version 0.30.0
<?xml version="1.0" encoding="UTF-8"?>

<configuration xmlns:xsi="http://www.w3.org/2001/XMLSchema-instance" xsi:noNamespaceSchemaLocation="http://sumo.dlr.de/xsd/sumoConfiguration.xsd">

    <input>
        <net-file value="../config/../network/grid.net.xml"/>
        <route-files value="../config/../trips/trips.xml"/>
        <additional-files value="../config/additional.xml"/>
    </input>

    <output>
        <summary-output value="../config/summary.xml"/>
        <vehroute-output value="../output/vehroutes.xml"/>
        <vehroute-output.route-length value="true"/>
    </output>

    <processing>
        <time-to-teleport value="300"/>
    </processing>

    <report>
        <log value="../config/report.xml"/>
    </report>

</configuration>
-->

<routes xmlns:xsi="http://www.w3.org/2001/XMLSchema-instance" xsi:noNamespaceSchemaLocation="http://sumo.dlr.de/xsd/routes_file.xsd">
    <vehicle id="61" depart="64.00" arrival="105.00" routeLength="485.40">
        <routeDistribution>
            <route replacedOnEdge="" replacedAtTime="61.00" probability="0" edges="4_5 4_5"/>
            <route edges="4_5"/>
        </routeDistribution>
    </vehicle>

    <vehicle id="30" depart="30.00" arrival="112.00" routeLength="981.70">
        <route edges="7_6 6_7"/>
    </vehicle>

    <vehicle id="42" depart="42.00" arrival="123.00" routeLength="987.72">
        <route edges="4_5 5_8"/>
    </vehicle>

    <vehicle id="46" depart="46.00" arrival="126.00" routeLength="981.48">
        <route edges="7_8 8_5"/>
    </vehicle>

    <vehicle id="88" depart="88.00" arrival="130.00" routeLength="486.90">
        <routeDistribution>
            <route replacedOnEdge="" replacedAtTime="88.00" probability="0" edges="0_1 0_1"/>
            <route edges="0_1"/>
        </routeDistribution>
    </vehicle>

    <vehicle id="23" depart="23.00" arrival="131.00" routeLength="981.31">
        <route edges="8_5 5_8"/>
    </vehicle>

    <vehicle id="35" depart="35.00" arrival="132.00" routeLength="981.31">
        <route edges="8_7 7_8"/>
    </vehicle>

    <vehicle id="98" depart="98.00" arrival="139.00" routeLength="486.90">
        <routeDistribution>
            <route replacedOnEdge="" replacedAtTime="98.00" probability="0" edges="7_8 7_8"/>
            <route edges="7_8"/>
        </routeDistribution>
    </vehicle>

    <vehicle id="10" depart="10.00" arrival="139.00" routeLength="1488.30">
        <routeDistribution>
            <route replacedOnEdge="" replacedAtTime="10.00" probability="0" edges="3_0 1_2"/>
            <route edges="3_0 0_1 1_2"/>
        </routeDistribution>
    </vehicle>

    <vehicle id="64" depart="64.00" arrival="144.00" routeLength="981.48">
        <route edges="7_8 8_5"/>
    </vehicle>

    <vehicle id="71" depart="71.00" arrival="146.00" routeLength="485.40">
        <routeDistribution>
            <route replacedOnEdge="" replacedAtTime="71.00" probability="0" edges="5_4 5_4"/>
            <route edges="5_4"/>
        </routeDistribution>
    </vehicle>

    <vehicle id="31" depart="31.00" arrival="152.00" routeLength="1481.21">
        <routeDistribution>
            <route replacedOnEdge="" replacedAtTime="31.00" probability="0" edges="3_0 1_0"/>
            <route edges="3_0 0_1 1_0"/>
        </routeDistribution>
    </vehicle>

    <vehicle id="17" depart="17.00" arrival="156.00" routeLength="1475.31">
        <routeDistribution>
            <route replacedOnEdge="" replacedAtTime="17.00" probability="0" edges="2_1 4_1"/>
            <route edges="2_1 1_4 4_1"/>
        </routeDistribution>
    </vehicle>

    <vehicle id="128" depart="129.00" arrival="171.00" routeLength="486.90">
        <routeDistribution>
            <route replacedOnEdge="" replacedAtTime="128.00" probability="0" edges="5_8 5_8"/>
            <route edges="5_8"/>
        </routeDistribution>
    </vehicle>

    <vehicle id="40" depart="40.00" arrival="177.00" routeLength="985.40">
        <route edges="5_4 4_3"/>
    </vehicle>

    <vehicle id="5" depart="5.00" arrival="179.00" routeLength="1478.59">
        <routeDistribution>
            <route replacedOnEdge="" replacedAtTime="5.00" probability="0" edges="4_5 4_3"/>
            <route edges="4_5 5_4 4_3"/>
        </routeDistribution>
    </vehicle>

    <vehicle id="12" depart="12.00" arrival="184.00" routeLength="982.68">
        <route edges="0_1 1_4"/>
    </vehicle>

    <vehicle id="21" depart="21.00" arrival="187.00" routeLength="982.68">
        <route edges="0_1 1_4"/>
    </vehicle>

    <vehicle id="25" depart="25.00" arrival="187.00" routeLength="1476.98">
        <routeDistribution>
            <route replacedOnEdge="" replacedAtTime="25.00" probability="0" edges="4_1 0_3"/>
            <route edges="4_1 1_0 0_3"/>
        </routeDistribution>
    </vehicle>

    <vehicle id="32" depart="32.00" arrival="188.00" routeLength="1477.90">
        <routeDistribution>
            <route replacedOnEdge="" replacedAtTime="32.00" probability="0" edges="7_4 3_6"/>
            <route edges="7_4 4_3 3_6"/>
        </routeDistribution>
    </vehicle>

    <vehicle id="47" depart="47.00" arrival="189.00" routeLength="1482.40">
        <routeDistribution>
            <route replacedOnEdge="" replacedAtTime="47.00" probability="0" edges="7_4 1_0"/>
            <route edges="7_4 4_1 1_0"/>
        </routeDistribution>
    </vehicle>

    <vehicle id="3" depart="3.00" arrival="190.00" routeLength="1979.40">
        <routeDistribution>
            <route replacedOnEdge="" replacedAtTime="3.00" probability="0" edges="6_7 1_0"/>
            <route edges="6_7 7_4 4_1 1_0"/>
        </routeDistribution>
    </vehicle>

    <vehicle id="26" depart="26.00" arrival="191.00" routeLength="1483.50">
        <routeDistribution>
            <route replacedOnEdge="" replacedAtTime="26.00" probability="0" edges="7_4 5_8"/>
            <route edges="7_4 4_5 5_8"/>
        </routeDistribution>
    </vehicle>

    <vehicle id="55" depart="55.00" arrival="192.00" routeLength="1482.40">
        <routeDistribution>
            <route replacedOnEdge="" replacedAtTime="55.00" probability="0" edges="7_4 1_0"/>
            <route edges="7_4 4_1 1_0"/>
        </routeDistribution>
    </vehicle>

    <vehicle id="11" depart="11.00" arrival="195.00" routeLength="1982.50">
        <routeDistribution>
            <route replacedOnEdge="" replacedAtTime="11.00" probability="0" edges="7_8 6_3"/>
            <route edges="7_8 8_7 7_6 6_3"/>
        </routeDistribution>
    </vehicle>

    <vehicle id="44" depart="44.00" arrival="198.00" routeLength="1487.62">
        <routeDistribution>
            <route replacedOnEdge="" replacedAtTime="44.00" probability="0" edges="4_3 0_1"/>
            <route edges="4_3 3_0 0_1"/>
        </routeDistribution>
    </vehicle>

    <vehicle id="1" depart="1.00" arrival="201.00" routeLength="1488.30">
        <routeDistribution>
            <route replacedOnEdge="" replacedAtTime="1.00" probability="0" edges="6_3 0_1"/>
            <route edges="6_3 3_0 0_1"/>
        </routeDistribution>
    </vehicle>

    <vehicle id="0" depart="0.00" arrival="202.00" routeLength="1988.20">
        <routeDistribution>
            <route replacedOnEdge="" replacedAtTime="0.00" probability="0" edges="1_2 8_7"/>
            <route edges="1_2 2_5 5_8 8_7"/>
        </routeDistribution>
    </vehicle>

    <vehicle id="14" depart="14.00" arrival="221.00" routeLength="1972.10">
        <routeDistribution>
            <route replacedOnEdge="" replacedAtTime="14.00" probability="0" edges="5_4 8_7"/>
            <route edges="5_4 4_7 7_8 8_7"/>
        </routeDistribution>
    </vehicle>

    <vehicle id="53" depart="53.00" arrival="222.00" routeLength="1483.20">
        <routeDistribution>
            <route replacedOnEdge="" replacedAtTime="53.00" probability="0" edges="7_6 7_8"/>
            <route edges="7_6 6_7 7_8"/>
        </routeDistribution>
    </vehicle>

    <vehicle id="20" depart="20.00" arrival="223.00" routeLength="1980.53">
        <routeDistribution>
            <route replacedOnEdge="" replacedAtTime="20.00" probability="0" edges="7_4 6_3"/>
            <route edges="7_4 4_7 7_6 6_3"/>
        </routeDistribution>
    </vehicle>

    <vehicle id="90" depart="91.00" arrival="225.00" routeLength="1482.52">
        <routeDistribution>
            <route replacedOnEdge="" replacedAtTime="90.00" probability="0" edges="4_3 0_3"/>
            <route edges="4_3 3_0 0_3"/>
        </routeDistribution>
    </vehicle>

    <vehicle id="181" depart="184.00" arrival="225.00" routeLength="486.90">
        <routeDistribution>
            <route replacedOnEdge="" replacedAtTime="181.00" probability="0" edges="1_0 1_0"/>
            <route edges="1_0"/>
        </routeDistribution>
    </vehicle>

    <vehicle id="39" depart="39.00" arrival="226.00" routeLength="1969.51">
        <routeDistribution>
            <route replacedOnEdge="" replacedAtTime="39.00" probability="0" edges="3_4 6_3"/>
            <route edges="3_4 4_3 3_6 6_3"/>
        </routeDistribution>
    </vehicle>

    <vehicle id="38" depart="38.00" arrival="226.00" routeLength="1976.60">
        <routeDistribution>
            <route replacedOnEdge="" replacedAtTime="38.00" probability="0" edges="7_4 0_1"/>
            <route edges="7_4 4_1 1_0 0_1"/>
        </routeDistribution>
    </vehicle>

    <vehicle id="27" depart="27.00" arrival="229.00" routeLength="1474.37">
        <routeDistribution>
            <route replacedOnEdge="" replacedAtTime="27.00" probability="0" edges="1_4 3_4"/>
            <route edges="1_4 4_3 3_4"/>
        </routeDistribution>
    </vehicle>

    <vehicle id="8" depart="8.00" arrival="231.00" routeLength="1970.30">
        <routeDistribution>
            <route replacedOnEdge="" replacedAtTime="8.00" probability="0" edges="0_1 3_0"/>
            <route edges="0_1 1_0 0_3 3_0"/>
        </routeDistribution>
    </vehicle>

    <vehicle id="104" depart="105.00" arrival="232.00" routeLength="485.40">
        <routeDistribution>
            <route replacedOnEdge="" replacedAtTime="104.00" probability="0" edges="5_4 5_4"/>
            <route edges="5_4"/>
        </routeDistribution>
    </vehicle>

    <vehicle id="57" depart="62.00" arrival="233.00" routeLength="985.40">
        <route edges="3_4 4_5"/>
    </vehicle>

    <vehicle id="13" depart="13.00" arrival="233.00" routeLength="2489.70">
        <routeDistribution>
            <route replacedOnEdge="" replacedAtTime="13.00" probability="0" edges="5_8 3_0"/>
            <route edges="5_8 8_7 7_6 6_3 3_0"/>
        </routeDistribution>
    </vehicle>

    <vehicle id="2" depart="4.00" arrival="233.00" routeLength="1478.46">
        <routeDistribution>
            <route replacedOnEdge="" replacedAtTime="2.00" probability="0" edges="6_3 4_7"/>
            <route edges="6_3 3_4 4_7"/>
        </routeDistribution>
    </vehicle>

    <vehicle id="34" depart="37.00" arrival="236.00" routeLength="1970.11">
        <routeDistribution>
            <route replacedOnEdge="" replacedAtTime="34.00" probability="0" edges="3_0 4_3"/>
            <route edges="3_0 0_3 3_4 4_3"/>
        </routeDistribution>
    </vehicle>

    <vehicle id="68" depart="68.00" arrival="236.00" routeLength="1977.39">
        <routeDistribution>
            <route replacedOnEdge="" replacedAtTime="68.00" probability="0" edges="0_1 3_6"/>
            <route edges="0_1 1_0 0_3 3_6"/>
        </routeDistribution>
    </vehicle>

    <vehicle id="89" depart="89.00" arrival="237.00" routeLength="1477.20">
        <routeDistribution>
            <route replacedOnEdge="" replacedAtTime="89.00" probability="0" edges="3_0 3_4"/>
            <route edges="3_0 0_3 3_4"/>
        </routeDistribution>
    </vehicle>

    <vehicle id="45" depart="45.00" arrival="237.00" routeLength="1989.12">
        <routeDistribution>
            <route replacedOnEdge="" replacedAtTime="45.00" probability="0" edges="4_1 5_8"/>
            <route edges="4_1 1_2 2_5 5_8"/>
        </routeDistribution>
    </vehicle>

    <vehicle id="51" depart="51.00" arrival="238.00" routeLength="1478.18">
        <routeDistribution>
            <route replacedOnEdge="" replacedAtTime="51.00" probability="0" edges="2_1 4_3"/>
            <route edges="2_1 1_4 4_3"/>
        </routeDistribution>
    </vehicle>

    <vehicle id="117" depart="117.00" arrival="239.00" routeLength="1483.20">
        <routeDistribution>
            <route replacedOnEdge="" replacedAtTime="117.00" probability="0" edges="5_8 5_2"/>
            <route edges="5_8 8_5 5_2"/>
        </routeDistribution>
    </vehicle>

    <vehicle id="81" depart="81.00" arrival="243.00" routeLength="1478.46">
        <routeDistribution>
            <route replacedOnEdge="" replacedAtTime="81.00" probability="0" edges="0_1 4_3"/>
            <route edges="0_1 1_4 4_3"/>
        </routeDistribution>
    </vehicle>

    <vehicle id="33" depart="34.00" arrival="246.00" routeLength="1972.70">
        <routeDistribution>
            <route replacedOnEdge="" replacedAtTime="33.00" probability="0" edges="3_0 4_1"/>
            <route edges="3_0 0_3 3_4 4_1"/>
        </routeDistribution>
    </vehicle>

    <vehicle id="153" depart="154.00" arrival="250.00" routeLength="981.18">
        <route edges="1_4 4_3"/>
    </vehicle>

    <vehicle id="22" depart="22.00" arrival="251.00" routeLength="1474.09">
        <routeDistribution>
            <route replacedOnEdge="" replacedAtTime="22.00" probability="0" edges="1_4 5_4"/>
            <route edges="1_4 4_5 5_4"/>
        </routeDistribution>
    </vehicle>

    <vehicle id="114" depart="114.00" arrival="253.00" routeLength="978.31">
        <route edges="7_4 4_7"/>
    </vehicle>

    <vehicle id="131" depart="131.00" arrival="255.00" routeLength="982.68">
        <route edges="2_5 5_4"/>
    </vehicle>

    <vehicle id="43" depart="43.00" arrival="255.00" routeLength="1482.68">
        <routeDistribution>
            <route replacedOnEdge="" replacedAtTime="43.00" probability="0" edges="0_1 4_7"/>
            <route edges="0_1 1_4 4_7"/>
        </routeDistribution>
    </vehicle>

    <vehicle id="178" depart="179.00" arrival="259.00" routeLength="981.31">
        <route edges="6_3 3_6"/>
    </vehicle>

    <vehicle id="225" depart="225.00" arrival="267.00" routeLength="485.40">
        <routeDistribution>
            <route replacedOnEdge="" replacedAtTime="225.00" probability="0" edges="4_7 4_7"/>
            <route edges="4_7"/>
        </routeDistribution>
    </vehicle>

    <vehicle id="63" depart="63.00" arrival="273.00" routeLength="1982.52">
        <routeDistribution>
            <route replacedOnEdge="" replacedAtTime="63.00" probability="0" edges="7_4 2_1"/>
            <route edges="7_4 4_1 1_2 2_1"/>
        </routeDistribution>
    </vehicle>

    <vehicle id="79" depart="81.00" arrival="274.00" routeLength="1487.72">
        <routeDistribution>
            <route replacedOnEdge="" replacedAtTime="79.00" probability="0" edges="5_4 3_0"/>
            <route edges="5_4 4_3 3_0"/>
        </routeDistribution>
    </vehicle>

    <vehicle id="50" depart="50.00" arrival="275.00" routeLength="1978.02">
        <routeDistribution>
            <route replacedOnEdge="" replacedAtTime="50.00" probability="0" edges="1_4 8_5"/>
            <route edges="1_4 4_5 5_8 8_5"/>
        </routeDistribution>
    </vehicle>

    <vehicle id="18" depart="18.00" arrival="275.00" routeLength="1971.09">
        <routeDistribution>
            <route replacedOnEdge="" replacedAtTime="18.00" probability="0" edges="4_3 1_0"/>
            <route edges="4_3 3_4 4_1 1_0"/>
        </routeDistribution>
    </vehicle>

    <vehicle id="58" depart="58.00" arrival="276.00" routeLength="1980.50">
        <routeDistribution>
            <route replacedOnEdge="" replacedAtTime="58.00" probability="0" edges="0_3 7_6"/>
            <route edges="0_3 3_4 4_7 7_6"/>
        </routeDistribution>
    </vehicle>

    <vehicle id="29" depart="29.00" arrival="277.00" routeLength="1979.68">
        <routeDistribution>
            <route replacedOnEdge="" replacedAtTime="29.00" probability="0" edges="6_3 5_2"/>
            <route edges="6_3 3_4 4_5 5_2"/>
        </routeDistribution>
    </vehicle>

    <vehicle id="37" depart="37.00" arrival="277.00" routeLength="1971.09">
        <routeDistribution>
            <route replacedOnEdge="" replacedAtTime="37.00" probability="0" edges="4_5 7_8"/>
            <route edges="4_5 5_4 4_7 7_8"/>
        </routeDistribution>
    </vehicle>

    <vehicle id="115" depart="115.00" arrival="278.00" routeLength="1977.40">
        <routeDistribution>
            <route replacedOnEdge="" replacedAtTime="115.00" probability="0" edges="3_0 6_3"/>
            <route edges="3_0 0_3 3_6 6_3"/>
        </routeDistribution>
    </vehicle>

    <vehicle id="84" depart="84.00" arrival="278.00" routeLength="1977.18">
        <routeDistribution>
            <route replacedOnEdge="" replacedAtTime="84.00" probability="0" edges="5_2 0_1"/>
            <route edges="5_2 2_1 1_0 0_1"/>
        </routeDistribution>
    </vehicle>

    <vehicle id="52" depart="52.00" arrival="279.00" routeLength="1977.78">
        <routeDistribution>
            <route replacedOnEdge="" replacedAtTime="52.00" probability="0" edges="1_2 0_3"/>
            <route edges="1_2 2_1 1_0 0_3"/>
        </routeDistribution>
    </vehicle>

    <vehicle id="19" depart="19.00" arrival="279.00" routeLength="1971.37">
        <routeDistribution>
            <route replacedOnEdge="" replacedAtTime="19.00" probability="0" edges="4_5 1_0"/>
            <route edges="4_5 5_4 4_1 1_0"/>
        </routeDistribution>
    </vehicle>

    <vehicle id="75" depart="75.00" arrival="279.00" routeLength="1480.63">
        <routeDistribution>
            <route replacedOnEdge="" replacedAtTime="75.00" probability="0" edges="5_4 5_8"/>
            <route edges="5_4 4_5 5_8"/>
        </routeDistribution>
    </vehicle>

    <vehicle id="161" depart="161.00" arrival="280.00" routeLength="981.48">
        <route edges="3_6 6_7"/>
    </vehicle>

    <vehicle id="113" depart="113.00" arrival="281.00" routeLength="1482.98">
        <routeDistribution>
            <route replacedOnEdge="" replacedAtTime="113.00" probability="0" edges="2_1 0_3"/>
            <route edges="2_1 1_0 0_3"/>
        </routeDistribution>
    </vehicle>

    <vehicle id="96" depart="102.00" arrival="281.00" routeLength="1477.90">
        <routeDistribution>
            <route replacedOnEdge="" replacedAtTime="96.00" probability="0" edges="3_4 1_0"/>
            <route edges="3_4 4_1 1_0"/>
        </routeDistribution>
    </vehicle>

    <vehicle id="123" depart="123.00" arrival="282.00" routeLength="1476.98">
        <routeDistribution>
            <route replacedOnEdge="" replacedAtTime="123.00" probability="0" edges="4_7 8_5"/>
            <route edges="4_7 7_8 8_5"/>
        </routeDistribution>
    </vehicle>

    <vehicle id="200" depart="204.00" arrival="282.00" routeLength="486.90">
        <routeDistribution>
            <route replacedOnEdge="" replacedAtTime="200.00" probability="0" edges="6_7 6_7"/>
            <route edges="6_7"/>
        </routeDistribution>
    </vehicle>

    <vehicle id="78" depart="78.00" arrival="283.00" routeLength="1975.46">
        <routeDistribution>
            <route replacedOnEdge="" replacedAtTime="78.00" probability="0" edges="6_3 7_8"/>
            <route edges="6_3 3_4 4_7 7_8"/>
        </routeDistribution>
    </vehicle>

    <vehicle id="65" depart="65.00" arrival="284.00" routeLength="1976.69">
        <routeDistribution>
            <route replacedOnEdge="" replacedAtTime="65.00" probability="0" edges="4_1 3_0"/>
            <route edges="4_1 1_4 4_3 3_0"/>
        </routeDistribution>
    </vehicle>

    <vehicle id="100" depart="101.00" arrival="284.00" routeLength="1977.56">
        <routeDistribution>
            <route replacedOnEdge="" replacedAtTime="100.00" probability="0" edges="7_8 2_1"/>
            <route edges="7_8 8_5 5_2 2_1"/>
        </routeDistribution>
    </vehicle>

    <vehicle id="172" depart="172.00" arrival="284.00" routeLength="981.10">
        <route edges="7_8 8_7"/>
    </vehicle>

    <vehicle id="159" depart="161.00" arrival="285.00" routeLength="1488.30">
        <routeDistribution>
            <route replacedOnEdge="" replacedAtTime="159.00" probability="0" edges="6_3 0_1"/>
            <route edges="6_3 3_0 0_1"/>
        </routeDistribution>
    </vehicle>

    <vehicle id="70" depart="70.00" arrival="286.00" routeLength="1476.88">
        <routeDistribution>
            <route replacedOnEdge="" replacedAtTime="70.00" probability="0" edges="1_0 1_4"/>
            <route edges="1_0 0_1 1_4"/>
        </routeDistribution>
    </vehicle>

    <vehicle id="48" depart="48.00" arrival="289.00" routeLength="1982.50">
        <routeDistribution>
            <route replacedOnEdge="" replacedAtTime="48.00" probability="0" edges="5_2 8_7"/>
            <route edges="5_2 2_5 5_8 8_7"/>
        </routeDistribution>
    </vehicle>

    <vehicle id="59" depart="59.00" arrival="293.00" routeLength="1985.00">
        <routeDistribution>
            <route replacedOnEdge="" replacedAtTime="59.00" probability="0" edges="8_7 1_2"/>
            <route edges="8_7 7_4 4_1 1_2"/>
        </routeDistribution>
    </vehicle>

    <vehicle id="80" depart="80.00" arrival="295.00" routeLength="2479.06">
        <routeDistribution>
            <route replacedOnEdge="" replacedAtTime="80.00" probability="0" edges="2_1 6_7"/>
            <route edges="2_1 1_0 0_3 3_6 6_7"/>
        </routeDistribution>
    </vehicle>

    <vehicle id="7" depart="7.00" arrival="295.00" routeLength="2479.20">
        <routeDistribution>
            <route replacedOnEdge="" replacedAtTime="7.00" probability="0" edges="1_0 7_6"/>
            <route edges="1_0 0_1 1_4 4_7 7_6"/>
        </routeDistribution>
    </vehicle>

    <vehicle id="72" depart="72.00" arrival="297.00" routeLength="1476.88">
        <routeDistribution>
            <route replacedOnEdge="" replacedAtTime="72.00" probability="0" edges="7_8 7_4"/>
            <route edges="7_8 8_7 7_4"/>
        </routeDistribution>
    </vehicle>

    <vehicle id="116" depart="120.00" arrival="297.00" routeLength="1977.78">
        <routeDistribution>
            <route replacedOnEdge="" replacedAtTime="116.00" probability="0" edges="3_0 6_7"/>
            <route edges="3_0 0_3 3_6 6_7"/>
        </routeDistribution>
    </vehicle>

    <vehicle id="166" depart="174.00" arrival="298.00" routeLength="1481.21">
        <routeDistribution>
            <route replacedOnEdge="" replacedAtTime="166.00" probability="0" edges="8_5 8_7"/>
            <route edges="8_5 5_8 8_7"/>
        </routeDistribution>
    </vehicle>

    <vehicle id="165" depart="165.00" arrival="299.00" routeLength="1483.20">
        <routeDistribution>
            <route replacedOnEdge="" replacedAtTime="165.00" probability="0" edges="2_5 8_5"/>
            <route edges="2_5 5_8 8_5"/>
        </routeDistribution>
    </vehicle>

    <vehicle id="82" depart="85.00" arrival="302.00" routeLength="1977.40">
        <routeDistribution>
            <route replacedOnEdge="" replacedAtTime="82.00" probability="0" edges="5_8 2_5"/>
            <route edges="5_8 8_5 5_2 2_5"/>
        </routeDistribution>
    </vehicle>

    <vehicle id="219" depart="219.00" arrival="302.00" routeLength="485.40">
        <routeDistribution>
            <route replacedOnEdge="" replacedAtTime="219.00" probability="0" edges="1_4 1_4"/>
            <route edges="1_4"/>
        </routeDistribution>
    </vehicle>

    <vehicle id="41" depart="41.00" arrival="304.00" routeLength="2471.59">
        <routeDistribution>
            <route replacedOnEdge="" replacedAtTime="41.00" probability="0" edges="8_7 2_5"/>
            <route edges="8_7 7_8 8_5 5_2 2_5"/>
        </routeDistribution>
    </vehicle>

    <vehicle id="15" depart="15.00" arrival="304.00" routeLength="1967.28">
        <routeDistribution>
            <route replacedOnEdge="" replacedAtTime="15.00" probability="0" edges="4_3 1_4"/>
            <route edges="4_3 3_4 4_1 1_4"/>
        </routeDistribution>
    </vehicle>

    <vehicle id="4" depart="4.00" arrival="306.00" routeLength="2465.95">
        <routeDistribution>
            <route replacedOnEdge="" replacedAtTime="4.00" probability="0" edges="7_8 1_4"/>
            <route edges="7_8 8_5 5_4 4_1 1_4"/>
        </routeDistribution>
    </vehicle>

    <vehicle id="36" depart="36.00" arrival="308.00" routeLength="2973.48">
        <routeDistribution>
            <route replacedOnEdge="" replacedAtTime="36.00" probability="0" edges="7_6 2_5"/>
            <route edges="7_6 6_7 7_8 8_5 5_2 2_5"/>
        </routeDistribution>
    </vehicle>

    <vehicle id="6" depart="6.00" arrival="312.00" routeLength="2475.71">
        <routeDistribution>
            <route replacedOnEdge="" replacedAtTime="6.00" probability="0" edges="4_3 8_5"/>
            <route edges="4_3 3_4 4_5 5_8 8_5"/>
        </routeDistribution>
    </vehicle>

    <vehicle id="163" depart="171.00" arrival="313.00" routeLength="1482.60">
        <routeDistribution>
            <route replacedOnEdge="" replacedAtTime="163.00" probability="0" edges="8_5 2_5"/>
            <route edges="8_5 5_2 2_5"/>
        </routeDistribution>
    </vehicle>

    <vehicle id="28" depart="28.00" arrival="314.00" routeLength="2470.17">
        <routeDistribution>
            <route replacedOnEdge="" replacedAtTime="28.00" probability="0" edges="4_3 2_1"/>
            <route edges="4_3 3_4 4_5 5_2 2_1"/>
        </routeDistribution>
    </vehicle>

    <vehicle id="91" depart="98.00" arrival="315.00" routeLength="1978.48">
        <routeDistribution>
            <route replacedOnEdge="" replacedAtTime="91.00" probability="0" edges="4_3 7_8"/>
            <route replacedOnEdge="" replacedAtTime="92.00" probability="0" edges="4_3 3_4 4_7 7_8"/>
            <route edges="4_3 3_6 6_7 7_8"/>
        </routeDistribution>
    </vehicle>

    <vehicle id="206" depart="207.00" arrival="317.00" routeLength="988.40">
        <route edges="2_1 1_0"/>
    </vehicle>

    <vehicle id="105" depart="106.00" arrival="318.00" routeLength="1482.58">
        <routeDistribution>
            <route replacedOnEdge="" replacedAtTime="105.00" probability="0" edges="1_2 5_4"/>
            <route edges="1_2 2_5 5_4"/>
        </routeDistribution>
    </vehicle>

    <vehicle id="66" depart="66.00" arrival="318.00" routeLength="1978.02">
        <routeDistribution>
            <route replacedOnEdge="" replacedAtTime="66.00" probability="0" edges="3_4 2_1"/>
            <route edges="3_4 4_1 1_2 2_1"/>
        </routeDistribution>
    </vehicle>

    <vehicle id="124" depart="124.00" arrival="318.00" routeLength="1474.09">
        <routeDistribution>
            <route replacedOnEdge="" replacedAtTime="124.00" probability="0" edges="7_4 3_4"/>
            <route edges="7_4 4_3 3_4"/>
        </routeDistribution>
    </vehicle>

    <vehicle id="77" depart="81.00" arrival="319.00" routeLength="2469.76">
        <routeDistribution>
            <route replacedOnEdge="" replacedAtTime="77.00" probability="0" edges="0_3 8_5"/>
            <route replacedOnEdge="" replacedAtTime="78.00" probability="0" edges="0_3 3_4 4_5 5_8 8_5"/>
            <route edges="0_3 3_4 4_7 7_8 8_5"/>
        </routeDistribution>
    </vehicle>

    <vehicle id="93" depart="94.00" arrival="319.00" routeLength="2479.28">
        <routeDistribution>
            <route replacedOnEdge="" replacedAtTime="93.00" probability="0" edges="5_8 1_0"/>
            <route edges="5_8 8_5 5_2 2_1 1_0"/>
        </routeDistribution>
    </vehicle>

    <vehicle id="148" depart="151.00" arrival="321.00" routeLength="1989.80">
        <routeDistribution>
            <route replacedOnEdge="" replacedAtTime="148.00" probability="0" edges="6_3 1_2"/>
            <route edges="6_3 3_0 0_1 1_2"/>
        </routeDistribution>
    </vehicle>

    <vehicle id="73" depart="73.00" arrival="322.00" routeLength="2479.80">
        <routeDistribution>
            <route replacedOnEdge="" replacedAtTime="73.00" probability="0" edges="6_3 8_5"/>
            <route edges="6_3 3_4 4_5 5_8 8_5"/>
        </routeDistribution>
    </vehicle>

    <vehicle id="154" depart="154.00" arrival="323.00" routeLength="1989.80">
        <routeDistribution>
            <route replacedOnEdge="" replacedAtTime="154.00" probability="0" edges="6_3 1_2"/>
            <route edges="6_3 3_0 0_1 1_2"/>
        </routeDistribution>
    </vehicle>

    <vehicle id="141" depart="143.00" arrival="324.00" routeLength="1989.80">
        <routeDistribution>
            <route replacedOnEdge="" replacedAtTime="141.00" probability="0" edges="8_7 3_0"/>
            <route edges="8_7 7_6 6_3 3_0"/>
        </routeDistribution>
    </vehicle>

    <vehicle id="176" depart="176.00" arrival="325.00" routeLength="1476.98">
        <routeDistribution>
            <route replacedOnEdge="" replacedAtTime="176.00" probability="0" edges="4_5 2_1"/>
            <route edges="4_5 5_2 2_1"/>
        </routeDistribution>
    </vehicle>

    <vehicle id="127" depart="129.00" arrival="325.00" routeLength="1972.38">
        <routeDistribution>
            <route replacedOnEdge="" replacedAtTime="127.00" probability="0" edges="3_4 8_7"/>
            <route replacedOnEdge="" replacedAtTime="129.00" probability="0" edges="3_4 4_5 5_8 8_7"/>
            <route edges="3_4 4_7 7_8 8_7"/>
        </routeDistribution>
    </vehicle>

    <vehicle id="121" depart="121.00" arrival="326.00" routeLength="1970.30">
        <routeDistribution>
            <route replacedOnEdge="" replacedAtTime="121.00" probability="0" edges="2_5 1_2"/>
            <route edges="2_5 5_2 2_1 1_2"/>