<?xml version="1.0" encoding="UTF-8"?>

<configuration xmlns:xsi="http://www.w3.org/2001/XMLSchema-instance" xsi:noNamespaceSchemaLocation="http://sumo.dlr.de/xsd/sumoConfiguration.xsd">

    <input>
        <net-file value="../network/umassd.net.xml"/>
        <route-files value="../trips/trip.xml"/>
        <additional-files value="additional_S5.xml"/>
   </input>

    <output>
        <summary-output value="../output/summary_S5.xml"/>
    </output>

    <report>
        <log value="../output/report_S5.xml"/>
    </report>

</configuration>
