<?xml version="1.0" encoding="UTF-8" ?>
<VTKFile type="PolyData" version="0.1" order="LittleEndian">
<PolyData>
 <Piece NumberOfPoints="29" NumberOfVerts="1" NumberOfLines="0" NumberOfStrips="0" NumberOfPolys="0">
<PointData>
 <DataArray type="Float64" Name="speed" format="ascii">3.3198 13.1362 12.7449 13.2586 13.2477 12.4113 12.3373 13.4031 12.5438 12.9857 12.7186 13.1492 12.21 12.6331 13.2046 12.8347 12.3167 12.2054 12.2467 12.5626 13.0828 12.4493 12.9224 12.4396 13.3069 13.297 12.6129 13.1478 12.7804</DataArray>
</PointData>
<CellData/>
<Points>
 <DataArray type="Float64" Name="Points" NumberOfComponents="3" format="ascii">2396.93 600.991 0 2378.64 614.706 0 2343.36 554.713 0 2319.3 536.669 0 2282.61 686.727 0 2255.68 488.951 0 2228.97 468.918 0 2202.61 449.149 0 2174.26 427.889 0 2133.12 397.033 0 2110.1 379.764 0 2085.51 361.322 0 2048.7 333.721 0 2030.27 875.984 0 2004.87 895.032 0 1972.37 276.468 0 1941.27 253.146 0 1924.68 955.18 0 1893.03 978.915 0 1863.75 195.006 0 1840.55 177.602 0 1803.09 1046.37 0 1773.24 1068.76 0 1753.95 112.657 0 1729 93.9411 0 1711.78 1114.85 0 1685.95 61.6556 0 1656.62 39.6596 0 1632.22 1174.53 0</DataArray>
</Points>
<Verts>
 <DataArray type="Int64" Name="connectivity" format="ascii">0 1 2 3 4 5 6 7 8 9 10 11 12 13 14 15 16 17 18 19 20 21 22 23 24 25 26 27 28</DataArray>
 <DataArray type="Int64" Name="offsets" format="ascii">29</DataArray>
</Verts>
<Lines>
 <DataArray type="Int64" Name="connectivity" format="ascii"/>
 <DataArray type="Int64" Name="offsets" format="ascii"/>
</Lines>
<Stripes>
 <DataArray type="Int64" Name="connectivity" format="ascii"/>
 <DataArray type="Int64" Name="offsets" format="ascii"/>
</Stripes>
<Polys>
 <DataArray type="Int64" Name="connectivity" format="ascii"/>
 <DataArray type="Int64" Name="offsets" format="ascii"/>
</Polys>
</Piece>
</PolyData>
</VTKFile>