<?xml version="1.0" encoding="UTF-8" ?>
<VTKFile type="PolyData" version="0.1" order="LittleEndian">
<PolyData>
 <Piece NumberOfPoints="82" NumberOfVerts="1" NumberOfLines="0" NumberOfStrips="0" NumberOfPolys="0">
<PointData>
 <DataArray type="Float64" Name="speed" format="ascii">4.98783 4.29697 12.6642 13.0924 12.8501 13.2782 12.3393 13.2022 12.7485 12.2503 12.2076 13.3617 13.174 12.4362 12.1105 12.417 12.8138 12.7875 13.0678 13.3906 13.3069 12.7971 12.3433 12.5765 12.1145 12.9177 13.056 12.4251 13.333 12.4578 12.9736 12.7987 13.1325 12.1335 12.5169 13.3394 12.9142 12.8728 12.6799 12.1292 13.11 12.127 12.7286 12.3712 12.8264 12.4538 12.6573 12.1434 12.3567 12.2791 12.2267 13.0523 12.6886 12.8835 13.2277 13.3418 12.6772 13.032 12.6813 12.6583 13.3681 13.3348 13.0097 12.5355 12.2807 12.294 13.1426 12.1921 12.7429 13.0937 12.5337 12.3891 12.4968 12.2322 12.5474 12.5481 12.922 13.3078 12.5431 12.026 7.59995 2.33335</DataArray>
</PointData>
<CellData/>
<Points>
 <DataArray type="Float64" Name="Points" NumberOfComponents="3" format="ascii">2399.3 599.559 0 2387.29 608.22 0 2362.64 569.176 0 2338.48 551.056 0 2310.07 666.139 0 2272.16 694.565 0 2253.19 487.083 0 2218.58 461.128 0 2198.17 445.818 0 2163.21 419.602 0 2133.02 396.957 0 2095.57 368.868 0 2072.54 351.597 0 2037.98 325.68 0 2021.23 882.765 0 1985.27 909.737 0 1957.28 265.155 0 1934.72 947.644 0 1907.58 968 0 1878.28 205.9 0 1848.99 183.937 0 1815.04 1037.41 0 1794.1 142.767 0 1763.16 119.563 0 1728.9 93.8658 0 1702.37 73.971 0 1668.38 48.4749 0 1646.15 31.8039 0 1614.52 8.07974 0 1568.27 -1.65 0 1543.19 -1.65 0 1496.36 -1.65 0 1457.46 -1.65 0 1413.61 -1.65 0 1384.77 -1.65 0 1359.01 1198.35 0 1325.76 1198.35 0 1297.88 -1.65 0 1255.54 -1.65 0 1228.62 1198.35 0 1188 1198.35 0 1156.67 -1.65 0 1124.94 -1.65 0 1085.42 1198.35 0 1054.18 1198.35 0 1023.52 -1.65 0 987.784 -1.65 0 957.577 1198.35 0 920.721 1198.35 0 889.071 -1.65 0 855.844 -1.65 0 813.991 -1.65 0 792.143 1191.29 0 759.182 1166.57 0 722.182 57.0513 0 693.179 78.8038 0 679.822 1107.05 0 646.647 1082.17 0 628.938 126.985 0 591.524 155.045 0 571.421 1025.75 0 545.65 1006.42 0 530.278 200.98 0 487.672 232.934 0 463.089 944.503 0 431.276 920.643 0 412.668 289.188 0 373.675 318.433 0 346.889 338.522 0 327.682 842.948 0 296.895 819.857 0 276.391 391.396 0 245.283 781.148 0 222.776 431.607 0 190.349 455.928 0 159.678 478.931 0 133.244 498.757 0 100.257 672.378 0 77.5401 540.535 0 38.9859 569.45 0 14.5715 587.761 0 2.01863 597.022 0</DataArray>
</Points>
<Verts>
 <DataArray type="Int64" Name="connectivity" format="ascii">0 1 2 3 4 5 6 7 8 9 10 11 12 13 14 15 16 17 18 19 20 21 22 23 24 25 26 27 28 29 30 31 32 33 34 35 36 37 38 39 40 41 42 43 44 45 46 47 48 49 50 51 52 53 54 55 56 57 58 59 60 61 62 63 64 65 66 67 68 69 70 71 72 73 74 75 76 77 78 79 80 81</DataArray>
 <DataArray type="Int64" Name="offsets" format="ascii">82</DataArray>
</Verts>
<Lines>
 <DataArray type="Int64" Name="connectivity" format="ascii"/>
 <DataArray type="Int64" Name="offsets" format="ascii"/>
</Lines>
<Stripes>
 <DataArray type="Int64" Name="connectivity" format="ascii"/>
 <DataArray type="Int64" Name="offsets" format="ascii"/>
</Stripes>
<Polys>
 <DataArray type="Int64" Name="connectivity" format="ascii"/>
 <DataArray type="Int64" Name="offsets" format="ascii"/>
</Polys>
</Piece>
</PolyData>
</VTKFile>