<?xml version="1.0" encoding="UTF-8" ?>
<VTKFile type="PolyData" version="0.1" order="LittleEndian">
<PolyData>
 <Piece NumberOfPoints="77" NumberOfVerts="1" NumberOfLines="0" NumberOfStrips="0" NumberOfPolys="0">
<PointData>
 <DataArray type="Float64" Name="speed" format="ascii">12.457 13.2399 12.9486 13.2326 12.9424 12.6731 12.2727 12.1834 12.1739 12.7126 12.2354 12.4699 13.3022 13.3343 13.2175 13.3643 12.6336 12.6056 12.7056 12.5762 12.2545 13.23 12.9893 12.1729 12.3941 13.114 13.1228 12.9128 12.52 13.275 12.6288 12.4458 12.8851 12.5142 12.3168 13.3545 13.0166 13.2589 12.5487 12.2094 12.6094 13.2721 13.0554 12.1264 12.6245 13.1904 12.5229 13.2416 12.1594 12.6131 12.5321 12.2116 12.2946 13.3687 12.4295 13.2863 12.5234 12.4993 12.3875 13.3144 12.385 12.9809 12.5504 13.2582 12.858 13.0742 12.5374 12.1783 12.331 12.1312 12.2509 12.9288 12.6945 12.2773 12.5463 9.02084 3.52734</DataArray>
</PointData>
<CellData/>
<Points>
 <DataArray type="Float64" Name="Points" NumberOfComponents="3" format="ascii">2397.33 595.19 0 2357.65 565.431 0 2326.97 542.423 0 2295.8 519.046 0 2272.01 501.198 0 2237.41 475.25 0 2200.15 447.306 0 2180.99 762.944 0 2155.85 781.8 0 2133.02 396.958 0 2091.46 365.786 0 2072.11 844.607 0 2053.19 337.082 0 2022.35 313.951 0 1987.2 287.591 0 1959.09 266.509 0 1920.32 237.435 0 1886.71 212.222 0 1865.81 196.553 0 1835.06 173.485 0 1804.35 150.459 0 1778.57 131.118 0 1745.55 106.355 0 1715.17 83.5666 0 1684.41 60.4983 0 1654.94 38.398 0 1625.31 16.1732 0 1588 -1.65 0 1551.29 -1.65 0 1520.62 -1.65 0 1474.48 -1.65 0 1431.88 -1.65 0 1410.71 -1.65 0 1360.84 -1.65 0 1318.78 -1.65 0 1284.65 -1.65 0 1244.63 -1.65 0 1224.39 1198.35 0 1176.49 1198.35 0 1157.92 -1.65 0 1109.17 -1.65 0 1086.43 -1.65 0 1036.48 1198.35 0 1004.48 1198.35 0 978.381 -1.65 0 943.723 -1.65 0 896.518 1198.35 0 880.161 -1.65 0 837.64 -1.65 0 799.519 -1.26965 0 764.547 1170.6 0 734.012 1147.7 0 705.332 69.6888 0 676.573 91.2584 0 644.064 1080.24 0 616.182 136.552 0 582.17 162.061 0 554.468 1013.04 0 525.298 991.16 0 501.087 222.873 0 472.41 244.381 0 443.852 265.799 0 410.955 290.472 0 381.71 312.406 0 352.594 334.244 0 321.931 838.634 0 291.765 816.01 0 269.957 396.222 0 240.625 418.221 0 204.618 445.226 0 174.309 467.957 0 138.185 495.051 0 111.013 515.43 0 78.5062 539.81 0 49.772 561.361 0 20.7635 612.758 0 4.39137 600.855 0</DataArray>
</Points>
<Verts>
 <DataArray type="Int64" Name="connectivity" format="ascii">0 1 2 3 4 5 6 7 8 9 10 11 12 13 14 15 16 17 18 19 20 21 22 23 24 25 26 27 28 29 30 31 32 33 34 35 36 37 38 39 40 41 42 43 44 45 46 47 48 49 50 51 52 53 54 55 56 57 58 59 60 61 62 63 64 65 66 67 68 69 70 71 72 73 74 75 76</DataArray>
 <DataArray type="Int64" Name="offsets" format="ascii">77</DataArray>
</Verts>
<Lines>
 <DataArray type="Int64" Name="connectivity" format="ascii"/>
 <DataArray type="Int64" Name="offsets" format="ascii"/>
</Lines>
<Stripes>
 <DataArray type="Int64" Name="connectivity" format="ascii"/>
 <DataArray type="Int64" Name="offsets" format="ascii"/>
</Stripes>
<Polys>
 <DataArray type="Int64" Name="connectivity" format="ascii"/>
 <DataArray type="Int64" Name="offsets" format="ascii"/>
</Polys>
</Piece>
</PolyData>
</VTKFile>