<?xml version="1.0" encoding="UTF-8" ?>
<VTKFile type="PolyData" version="0.1" order="LittleEndian">
<PolyData>
 <Piece NumberOfPoints="77" NumberOfVerts="1" NumberOfLines="0" NumberOfStrips="0" NumberOfPolys="0">
<PointData>
 <DataArray type="Float64" Name="speed" format="ascii">12.3558 12.7316 12.6627 12.1403 12.3014 12.2902 12.3762 12.5439 13.1099 12.8332 13.1931 12.6929 12.4846 12.401 12.8283 13.1561 12.2218 12.5967 12.8417 13.3752 12.4211 13.1465 12.964 13.0691 12.3266 12.4057 13.1491 12.4686 12.9968 12.2595 12.9036 13.222 12.8444 12.7985 13.293 12.7117 12.845 13.3199 13.2188 12.1206 12.1553 12.1221 12.9393 12.5111 12.1815 12.3613 13.3649 12.5267 13.3849 12.4165 12.3357 13.1912 12.7619 12.2045 12.7835 12.3163 12.5521 12.3336 13.1469 12.7737 12.8583 12.3074 12.5398 12.9912 12.5614 12.7195 13.2487 13.1551 12.5529 13.0657 12.5394 13.2294 13.3858 12.6824 10.5049 3.38781 0</DataArray>
</PointData>
<CellData/>
<Points>
 <DataArray type="Float64" Name="Points" NumberOfComponents="3" format="ascii">2376.96 615.967 0 2350.31 559.928 0 2325.54 541.351 0 2297.8 520.539 0 2263.15 494.555 0 2235.52 473.83 0 2208.43 453.516 0 2169.73 424.488 0 2148.42 408.505 0 2115.04 383.473 0 2082.98 359.431 0 2055.6 338.893 0 2024.63 315.664 0 1994.25 292.881 0 1953.01 933.929 0 1922.41 956.879 0 1897.58 220.378 0 1865.3 196.165 0 1828.83 1027.06 0 1805.32 1044.7 0 1781.88 133.605 0 1755.94 114.147 0 1722.37 1106.91 0 1697.43 1125.61 0 1679.02 56.4592 0 1649.39 34.2363 0 1611.15 5.55173 0 1578.73 -1.65 0 1537.36 -1.65 0 1496 -1.65 0 1464.3 -1.65 0 1421.29 -1.65 0 1389 -1.65 0 1347.45 -1.65 0 1303.9 -1.65 0 1272.93 -1.65 0 1224.35 -1.65 0 1183.48 -1.65 0 1142.52 -1.65 0 1107.3 -1.65 0 1071.55 -1.65 0 1030.2 -1.65 0 990.261 -1.65 0 934.789 -1.65 0 907.505 -1.65 0 859.625 -1.65 0 824.559 -1.65 0 784.04 10.6578 0 764.298 25.464 0 722.373 56.9076 0 695.758 76.8691 0 679.061 1106.48 0 647.321 1082.68 0 617.761 135.367 0 595.892 151.769 0 569.25 171.75 0 533.847 997.572 0 502.187 973.827 0 478.081 240.128 0 454.23 258.016 0 416.321 286.448 0 388.351 307.426 0 358.676 866.193 0 338.759 344.62 0 316.211 361.531 0 281.121 808.026 0 247.154 782.551 0 227.594 427.994 0 193.303 453.712 0 168.547 472.279 0 149.256 709.127 0 109.068 678.986 0 83.5933 535.995 0 51.982 559.703 0 27.4153 617.747 0 4.79769 601.093 0 0.1 598.35 0</DataArray>
</Points>
<Verts>
 <DataArray type="Int64" Name="connectivity" format="ascii">0 1 2 3 4 5 6 7 8 9 10 11 12 13 14 15 16 17 18 19 20 21 22 23 24 25 26 27 28 29 30 31 32 33 34 35 36 37 38 39 40 41 42 43 44 45 46 47 48 49 50 51 52 53 54 55 56 57 58 59 60 61 62 63 64 65 66 67 68 69 70 71 72 73 74 75 76</DataArray>
 <DataArray type="Int64" Name="offsets" format="ascii">77</DataArray>
</Verts>
<Lines>
 <DataArray type="Int64" Name="connectivity" format="ascii"/>
 <DataArray type="Int64" Name="offsets" format="ascii"/>
</Lines>
<Stripes>
 <DataArray type="Int64" Name="connectivity" format="ascii"/>
 <DataArray type="Int64" Name="offsets" format="ascii"/>
</Stripes>
<Polys>
 <DataArray type="Int64" Name="connectivity" format="ascii"/>
 <DataArray type="Int64" Name="offsets" format="ascii"/>
</Polys>
</Piece>
</PolyData>
</VTKFile>