<?xml version="1.0" encoding="UTF-8" ?>
<VTKFile type="PolyData" version="0.1" order="LittleEndian">
<PolyData>
 <Piece NumberOfPoints="82" NumberOfVerts="1" NumberOfLines="0" NumberOfStrips="0" NumberOfPolys="0">
<PointData>
 <DataArray type="Float64" Name="speed" format="ascii">0.0679918 13.2724 13.095 13.2999 13.3427 12.2408 12.6139 12.1797 12.3721 12.4575 12.7796 12.8904 12.584 13.109 13.3639 12.6216 12.237 12.8649 12.7318 13.3277 12.3651 12.7408 12.3576 12.2469 12.5499 12.4621 12.8637 12.2781 13.3294 13.3206 12.8888 12.2027 12.8914 12.2688 13.1318 12.6068 12.462 12.2024 13.0251 12.7632 12.5828 12.8809 12.6055 12.6346 12.2061 12.1153 13.376 12.1142 12.8695 12.5252 12.6368 12.118 12.7064 13.0139 13.3945 12.5112 12.885 12.9304 12.1857 12.4873 12.4087 12.879 12.4846 12.7913 12.5058 13.3978 12.8909 12.8948 12.149 12.2415 12.5091 12.7235 13.3139 13.3049 13.119 13.0223 12.9944 12.1416 12.3964 10.0326 3.87232 0</DataArray>
</PointData>
<CellData/>
<Points>
 <DataArray type="Float64" Name="Points" NumberOfComponents="3" format="ascii">2398 600.185 0 2397.51 595.327 0 2373.56 618.519 0 2345.78 639.353 0 2318.5 536.065 0 2283.98 510.178 0 2253.57 708.508 0 2234.16 472.814 0 2200.3 447.415 0 2164.8 420.792 0 2143.43 404.766 0 2108.08 378.25 0 2083.8 360.044 0 2053.12 337.032 0 2013.6 307.395 0 1991.32 290.686 0 1957.55 265.358 0 1923.12 239.529 0 1891.07 215.494 0 1866.6 197.14 0 1844.93 1014.99 0 1819.64 1033.96 0 1799.93 147.137 0 1762.1 118.767 0 1740.27 1093.49 0 1714.79 1112.59 0 1684.68 60.6995 0 1659.92 42.1353 0 1628.02 1177.68 0 1600.82 1197.55 0 1572.48 -1.65 0 1537.45 -1.65 0 1508.41 1198.35 0 1468.7 1198.35 0 1437.68 -1.65 0 1404.41 -1.65 0 1360.15 -1.65 0 1338.3 1198.35 0 1295.58 1198.35 0 1249.86 -1.65 0 1216 -1.65 0 1197.42 1198.35 0 1158.73 1198.35 0 1133.03 -1.65 0 1091.37 -1.65 0 1069.01 1198.35 0 1032.45 1198.35 0 1010.66 -1.65 0 960.696 -1.65 0 928.138 1198.35 0 890.285 1198.35 0 866.095 -1.65 0 815.668 -1.65 0 785.705 9.4084 0 764.932 1170.89 0 738.044 1150.72 0 715.404 62.135 0 683.757 1110 0 660.425 103.369 0 633.784 123.35 0 600.467 148.338 0 569.39 171.646 0 538.688 1001.2 0 511.645 214.955 0 478.582 239.752 0 450.618 260.725 0 420.687 283.174 0 391.902 304.762 0 354.771 332.611 0 321.065 357.89 0 291.327 380.194 0 248.917 412.001 0 226.869 767.338 0 196.158 744.304 0 177.408 465.634 0 141.622 492.473 0 109.644 679.419 0 76.8987 654.859 0 53.975 558.209 0 23.2273 581.269 0 4.75741 601.069 0 0.1 598.35 0</DataArray>
</Points>
<Verts>
 <DataArray type="Int64" Name="connectivity" format="ascii">0 1 2 3 4 5 6 7 8 9 10 11 12 13 14 15 16 17 18 19 20 21 22 23 24 25 26 27 28 29 30 31 32 33 34 35 36 37 38 39 40 41 42 43 44 45 46 47 48 49 50 51 52 53 54 55 56 57 58 59 60 61 62 63 64 65 66 67 68 69 70 71 72 73 74 75 76 77 78 79 80 81</DataArray>
 <DataArray type="Int64" Name="offsets" format="ascii">82</DataArray>
</Verts>
<Lines>
 <DataArray type="Int64" Name="connectivity" format="ascii"/>
 <DataArray type="Int64" Name="offsets" format="ascii"/>
</Lines>
<Stripes>
 <DataArray type="Int64" Name="connectivity" format="ascii"/>
 <DataArray type="Int64" Name="offsets" format="ascii"/>
</Stripes>
<Polys>
 <DataArray type="Int64" Name="connectivity" format="ascii"/>
 <DataArray type="Int64" Name="offsets" format="ascii"/>
</Polys>
</Piece>
</PolyData>
</VTKFile>