<?xml version="1.0" encoding="UTF-8" ?>
<VTKFile type="PolyData" version="0.1" order="LittleEndian">
<PolyData>
 <Piece NumberOfPoints="77" NumberOfVerts="1" NumberOfLines="0" NumberOfStrips="0" NumberOfPolys="0">
<PointData>
 <DataArray type="Float64" Name="speed" format="ascii">13.0049 12.527 13.0844 12.8866 12.747 13.0782 12.8433 13.3291 12.596 12.5587 12.8128 12.2857 12.8512 13.1943 12.7366 13.2271 12.8026 13.1682 12.966 12.2581 12.7619 12.4888 13.0594 12.3445 12.5231 12.8908 13.3761 13.0192 12.6375 13.3014 12.2186 12.2437 12.7811 13.3611 13.2557 12.2671 12.6961 12.495 12.3911 13.2986 13.1861 13.0054 13.1367 13.2326 12.2317 12.9916 12.6181 13.2365 12.7162 12.1966 12.9745 13.3179 13.3504 13.2574 12.9023 13.2282 12.4411 13.1394 12.937 12.9934 13.1814 13.1751 13.3847 12.4741 12.2386 13.12 12.8114 12.779 12.9069 12.9883 12.9128 12.2175 12.2685 12.7695 11.6954 5.75488 2.1687</DataArray>
</PointData>
<CellData/>
<Points>
 <DataArray type="Float64" Name="Points" NumberOfComponents="3" format="ascii">2394.45 593.033 0 2363.54 569.846 0 2344.1 555.27 0 2319.76 658.864 0 2287.27 512.647 0 2259.41 491.749 0 2229.31 469.178 0 2189.62 439.407 0 2171.85 426.082 0 2133.06 396.986 0 2109.95 379.652 0 2067.15 347.557 0 2055.63 856.965 0 2019.46 884.091 0 1991.94 291.15 0 1968.06 273.237 0 1939.45 251.781 0 1903.32 224.685 0 1881.38 208.228 0 1850.99 185.437 0 1812.08 156.253 0 1788.87 138.846 0 1758.7 116.216 0 1722.4 88.9928 0 1698.35 70.9571 0 1667.09 47.5106 0 1637.16 25.0642 0 1595.85 1198.35 0 1557.64 1198.35 0 1525.96 -1.65 0 1486.41 -1.65 0 1437.75 1198.35 0 1412.04 1198.35 0 1380.88 -1.65 0 1345.19 -1.65 0 1306.26 1198.35 0 1271.28 1198.35 0 1248.2 -1.65 0 1213.18 -1.65 0 1165.79 -1.65 0 1132.51 -1.65 0 1093.63 -1.65 0 1045.48 -1.65 0 1016.47 -1.65 0 974.474 -1.65 0 939 -1.65 0 901.054 -1.65 0 860.352 -1.65 0 825.965 -1.65 0 781.495 12.5661 0 749.412 36.6284 0 717.595 60.4918 0 688.52 82.2975 0 657.371 105.659 0 629.12 126.848 0 592.124 154.595 0 549.565 186.514 0 529.944 201.23 0 491.518 230.05 0 461.581 252.503 0 431.513 275.054 0 404.972 294.96 0 366.573 323.759 0 338.597 344.741 0 320.409 837.493 0 291.828 816.057 0 262.038 402.161 0 240.906 418.01 0 212.981 438.953 0 179.987 732.176 0 144.951 705.899 0 121.815 507.328 0 94.2385 528.011 0 58.5886 554.748 0 31.2057 575.286 0 10.0406 604.715 0 1.88324 597.116 0</DataArray>
</Points>
<Verts>
 <DataArray type="Int64" Name="connectivity" format="ascii">0 1 2 3 4 5 6 7 8 9 10 11 12 13 14 15 16 17 18 19 20 21 22 23 24 25 26 27 28 29 30 31 32 33 34 35 36 37 38 39 40 41 42 43 44 45 46 47 48 49 50 51 52 53 54 55 56 57 58 59 60 61 62 63 64 65 66 67 68 69 70 71 72 73 74 75 76</DataArray>
 <DataArray type="Int64" Name="offsets" format="ascii">77</DataArray>
</Verts>
<Lines>
 <DataArray type="Int64" Name="connectivity" format="ascii"/>
 <DataArray type="Int64" Name="offsets" format="ascii"/>
</Lines>
<Stripes>
 <DataArray type="Int64" Name="connectivity" format="ascii"/>
 <DataArray type="Int64" Name="offsets" format="ascii"/>
</Stripes>
<Polys>
 <DataArray type="Int64" Name="connectivity" format="ascii"/>
 <DataArray type="Int64" Name="offsets" format="ascii"/>
</Polys>
</Piece>
</PolyData>
</VTKFile>