<?xml version="1.0" encoding="UTF-8" ?>
<VTKFile type="PolyData" version="0.1" order="LittleEndian">
<PolyData>
 <Piece NumberOfPoints="78" NumberOfVerts="1" NumberOfLines="0" NumberOfStrips="0" NumberOfPolys="0">
<PointData>
 <DataArray type="Float64" Name="speed" format="ascii">11.7087 11.0614 12.4619 13.2579 13.1671 12.4353 13.1906 13.0074 12.6654 12.7555 13.1046 12.9558 13.1502 12.7837 12.7139 12.7376 12.964 12.8228 12.4349 12.3026 13.2448 12.521 12.5091 13.042 12.4244 12.2169 12.7724 12.1226 13.0763 12.1799 12.9228 12.2782 12.5351 12.7874 12.6057 12.5876 12.9576 12.4377 13.2625 13.0311 13.2327 12.3971 12.2214 13.2217 13.3966 13.1641 12.5606 13.1688 12.5127 13.2801 12.5309 13.3917 12.2662 12.2617 12.1956 12.7699 13.3929 13.2377 12.2548 12.3097 12.1807 13.057 13.2762 12.4732 13.2751 12.7234 13.0685 13.1128 12.7623 12.9174 12.4928 12.4448 12.297 12.3687 12.2886 12.595 8.0394 2.28272</DataArray>
</PointData>
<CellData/>
<Points>
 <DataArray type="Float64" Name="Points" NumberOfComponents="3" format="ascii">2399.87 596.967 0 2380.12 582.281 0 2336.5 549.565 0 2317.09 535.012 0 2293.89 517.614 0 2258.85 491.332 0 2239 476.443 0 2193.93 442.639 0 2159.67 416.943 0 2135.99 399.184 0 2106.79 377.282 0 2074.18 352.83 0 2057.83 855.315 0 2026.44 878.856 0 2012.78 306.776 0 1972.83 276.814 0 1945.09 939.868 0 1908.21 967.532 0 1882.44 986.859 0 1858.77 191.271 0 1825.78 166.527 0 1804.54 1045.28 0 1773.88 1068.28 0 1747.86 108.085 0 1726.75 92.2554 0 1690.68 1130.68 0 1657.41 1155.63 0 1639.24 26.6237 0 1604.78 0.83294 0 1561.78 -1.65 0 1517.62 -1.65 0 1490.44 -1.65 0 1452.5 -1.65 0 1404.17 1198.35 0 1376.06 -1.65 0 1348.53 -1.65 0 1307.64 -1.65 0 1270.92 -1.65 0 1228.74 -1.65 0 1193.78 -1.65 0 1156.83 -1.65 0 1120.97 -1.65 0 1089.46 -1.65 0 1041.86 -1.65 0 1002.29 -1.65 0 958.609 -1.65 0 928.549 -1.65 0 891.344 -1.65 0 848.599 -1.65 0 811.861 -1.65 0 783.632 10.9634 0 742.943 41.4806 0 717.26 60.7427 0 690.901 80.5119 0 669.11 1099.02 0 638.465 119.84 0 607.395 143.142 0 576.003 166.686 0 541.234 192.762 0 519.323 209.196 0 485.007 234.933 0 455.96 256.719 0 420.065 283.64 0 402.412 898.995 0 372.094 876.257 0 344.485 340.325 0 312.839 364.06 0 291.608 379.983 0 254.08 408.129 0 230.036 426.162 0 200.285 448.476 0 161.686 477.425 0 135.637 496.962 0 104.236 520.513 0 70.79 545.597 0 43.0644 566.392 0 16.2071 586.535 0 1.977 597.051 0</DataArray>
</Points>
<Verts>
 <DataArray type="Int64" Name="connectivity" format="ascii">0 1 2 3 4 5 6 7 8 9 10 11 12 13 14 15 16 17 18 19 20 21 22 23 24 25 26 27 28 29 30 31 32 33 34 35 36 37 38 39 40 41 42 43 44 45 46 47 48 49 50 51 52 53 54 55 56 57 58 59 60 61 62 63 64 65 66 67 68 69 70 71 72 73 74 75 76 77</DataArray>
 <DataArray type="Int64" Name="offsets" format="ascii">78</DataArray>
</Verts>
<Lines>
 <DataArray type="Int64" Name="connectivity" format="ascii"/>
 <DataArray type="Int64" Name="offsets" format="ascii"/>
</Lines>
<Stripes>
 <DataArray type="Int64" Name="connectivity" format="ascii"/>
 <DataArray type="Int64" Name="offsets" format="ascii"/>
</Stripes>
<Polys>
 <DataArray type="Int64" Name="connectivity" format="ascii"/>
 <DataArray type="Int64" Name="offsets" format="ascii"/>
</Polys>
</Piece>
</PolyData>
</VTKFile>