<?xml version="1.0" encoding="UTF-8" ?>
<VTKFile type="PolyData" version="0.1" order="LittleEndian">
<PolyData>
 <Piece NumberOfPoints="78" NumberOfVerts="1" NumberOfLines="0" NumberOfStrips="0" NumberOfPolys="0">
<PointData>
 <DataArray type="Float64" Name="speed" format="ascii">8.78105 13.4043 12.6372 13.3017 12.5764 13.0488 13.0531 13.0912 13.3295 12.3694 12.6651 12.8992 12.1592 12.8866 12.7493 12.1354 13.3 12.3311 12.3008 12.2575 12.773 13.0961 13.3203 13.3911 12.9941 12.7428 12.719 13.3338 12.134 12.3417 12.73 12.726 12.2362 13.1871 12.4463 12.6535 12.9494 12.388 12.123 12.3036 12.45 13.0878 12.7423 12.4056 13.173 13.1207 13.0918 12.4215 12.4664 12.5931 12.419 12.7445 13.18 12.4383 12.3177 13.0571 12.6635 13.0896 12.2132 12.2741 13.2498 12.3725 12.9093 12.3496 13.0666 13.3091 12.5079 12.7726 12.6393 13.3837 12.375 12.2831 12.4299 12.4722 12.7221 12.9663 10.1351 4.06789</DataArray>
</PointData>
<CellData/>
<Points>
 <DataArray type="Float64" Name="Points" NumberOfComponents="3" format="ascii">2394.21 603.027 0 2384.82 585.808 0 2359.97 567.167 0 2326.83 653.562 0 2295.86 676.791 0 2279.28 506.653 0 2251.44 485.772 0 2210.01 454.7 0 2188.73 438.739 0 2150.24 409.869 0 2120.59 387.638 0 2091.69 365.963 0 2056.03 339.212 0 2033.24 322.122 0 2001.42 298.26 0 1965.17 271.068 0 1942.24 253.873 0 1896.64 219.67 0 1868.29 198.408 0 1834.5 173.07 0 1806.66 152.185 0 1780.29 132.409 0 1747.45 107.78 0 1712.29 81.4093 0 1675.14 53.5461 0 1643.96 30.166 0 1610.36 4.96446 0 1579.36 -1.65 0 1537.52 -1.65 0 1506.36 -1.65 0 1451.68 -1.65 0 1421.35 -1.65 0 1400.61 1198.35 0 1363.89 1198.35 0 1322.94 -1.65 0 1300.85 -1.65 0 1265.58 -1.65 0 1216.6 1198.35 0 1179.64 1198.35 0 1152.28 -1.65 0 1119.82 -1.65 0 1073.54 -1.65 0 1036.25 -1.65 0 997.196 1198.35 0 976.573 -1.65 0 951.813 -1.65 0 908.55 1198.35 0 860.566 1198.35 0 839.595 -1.65 0 796.206 1.19108 0 766.267 23.9876 0 756.981 1164.92 0 713.317 1132.17 0 684.609 85.2311 0 652.721 109.147 0 628.556 1068.6 0 590.179 1039.82 0 577.016 165.926 0 537.103 195.861 0 514.609 212.731 0 481.96 237.219 0 453.792 258.345 0 419.387 284.149 0 389.884 306.276 0 360.897 328.016 0 340.457 852.529 0 309.081 828.997 0 278.418 389.875 0 253.364 787.209 0 220.272 762.39 0 198.771 449.611 0 163.846 475.805 0 141.147 703.046 0 113.113 513.855 0 78.6722 539.686 0 53.354 558.674 0 24.2218 580.524 0 5.28254 594.728 0</DataArray>
</Points>
<Verts>
 <DataArray type="Int64" Name="connectivity" format="ascii">0 1 2 3 4 5 6 7 8 9 10 11 12 13 14 15 16 17 18 19 20 21 22 23 24 25 26 27 28 29 30 31 32 33 34 35 36 37 38 39 40 41 42 43 44 45 46 47 48 49 50 51 52 53 54 55 56 57 58 59 60 61 62 63 64 65 66 67 68 69 70 71 72 73 74 75 76 77</DataArray>
 <DataArray type="Int64" Name="offsets" format="ascii">78</DataArray>
</Verts>
<Lines>
 <DataArray type="Int64" Name="connectivity" format="ascii"/>
 <DataArray type="Int64" Name="offsets" format="ascii"/>
</Lines>
<Stripes>
 <DataArray type="Int64" Name="connectivity" format="ascii"/>
 <DataArray type="Int64" Name="offsets" format="ascii"/>
</Stripes>
<Polys>
 <DataArray type="Int64" Name="connectivity" format="ascii"/>
 <DataArray type="Int64" Name="offsets" format="ascii"/>
</Polys>
</Piece>
</PolyData>
</VTKFile>