<?xml version="1.0" encoding="UTF-8" ?>
<VTKFile type="PolyData" version="0.1" order="LittleEndian">
<PolyData>
 <Piece NumberOfPoints="80" NumberOfVerts="1" NumberOfLines="0" NumberOfStrips="0" NumberOfPolys="0">
<PointData>
 <DataArray type="Float64" Name="speed" format="ascii">12.4944 12.1987 12.6048 13.0735 12.7582 12.6784 13.0635 12.9907 12.7142 12.8358 12.695 12.8221 13.2704 12.173 13.029 13.2352 13.0391 12.9442 12.8364 12.1122 12.8183 12.6304 12.6498 13.3175 13.408 12.7885 12.5803 13.3983 13.0643 12.7537 12.4049 12.4952 13.3947 12.2604 13.2434 12.1813 12.5153 13.0578 12.7618 12.5162 12.7691 12.3774 12.7198 13.3301 12.5252 12.2799 12.8158 13.2947 12.1344 13.1508 12.7275 13.0576 12.9175 13.284 13.3972 12.3193 13.1205 13.3432 12.7898 12.6915 12.9742 13.242 13.13 13.3002 12.9758 12.5516 12.7258 12.8089 12.4195 13.1099 12.576 12.3655 12.3857 13.0066 13.3031 12.2602 12.5474 8.87251 6.23583 0</DataArray>
</PointData>
<CellData/>
<Points>
 <DataArray type="Float64" Name="Points" NumberOfComponents="3" format="ascii">2371.01 575.45 0 2348.66 558.688 0 2316.86 534.835 0 2277.5 505.315 0 2255.9 489.118 0 2221.58 463.38 0 2189.23 439.112 0 2157.65 415.429 0 2131.54 395.846 0 2109.42 816.625 0 2086.05 834.153 0 2064.72 345.736 0 2027 317.442 0 2005.91 894.252 0 1980.55 913.275 0 1953.75 262.503 0 1925.56 241.363 0 1892.92 978.999 0 1868.91 997.006 0 1842.89 179.357 0 1815.82 159.06 0 1791.91 1054.76 0 1759.14 1079.34 0 1736.74 99.7487 0 1709.43 79.2665 0 1673.96 52.6588 0 1658.51 1154.81 0 1624.32 1180.45 0 1582.2 -1.65 0 1546.05 -1.65 0 1528.66 1198.35 0 1489.48 1198.35 0 1464.45 -1.65 0 1422.89 -1.65 0 1403.41 1198.35 0 1361.56 1198.35 0 1342.12 -1.65 0 1295.57 -1.65 0 1258.17 1198.35 0 1222.43 1198.35 0 1199.59 -1.65 0 1147.85 -1.65 0 1116.32 -1.65 0 1087.83 1198.35 0 1051.59 1198.35 0 1025.46 -1.65 0 989.648 1198.35 0 956.521 -1.65 0 921.855 -1.65 0 883.264 -1.65 0 840.032 -1.65 0 807.157 1198.35 0 776.975 15.9564 0 746.394 38.8924 0 718.215 60.0265 0 687.333 83.1883 0 655.542 107.032 0 620.523 133.295 0 586.437 158.86 0 559.26 179.243 0 515.027 212.418 0 494.461 968.032 0 460.946 942.896 0 446.08 264.129 0 409.79 291.347 0 373.453 877.276 0 341.829 853.558 0 320.604 358.236 0 287.074 383.383 0 257.168 790.062 0 230.253 425.999 0 203.453 446.1 0 175.011 467.431 0 144.429 490.367 0 108.017 517.677 0 79.9321 538.741 0 57.4402 555.61 0 20.5374 583.287 0 9.70708 604.465 0 0.1 598.35 0</DataArray>
</Points>
<Verts>
 <DataArray type="Int64" Name="connectivity" format="ascii">0 1 2 3 4 5 6 7 8 9 10 11 12 13 14 15 16 17 18 19 20 21 22 23 24 25 26 27 28 29 30 31 32 33 34 35 36 37 38 39 40 41 42 43 44 45 46 47 48 49 50 51 52 53 54 55 56 57 58 59 60 61 62 63 64 65 66 67 68 69 70 71 72 73 74 75 76 77 78 79</DataArray>
 <DataArray type="Int64" Name="offsets" format="ascii">80</DataArray>
</Verts>
<Lines>
 <DataArray type="Int64" Name="connectivity" format="ascii"/>
 <DataArray type="Int64" Name="offsets" format="ascii"/>
</Lines>
<Stripes>
 <DataArray type="Int64" Name="connectivity" format="ascii"/>
 <DataArray type="Int64" Name="offsets" format="ascii"/>
</Stripes>
<Polys>
 <DataArray type="Int64" Name="connectivity" format="ascii"/>
 <DataArray type="Int64" Name="offsets" format="ascii"/>
</Polys>
</Piece>
</PolyData>
</VTKFile>