<?xml version="1.0" encoding="UTF-8" ?>
<VTKFile type="PolyData" version="0.1" order="LittleEndian">
<PolyData>
 <Piece NumberOfPoints="81" NumberOfVerts="1" NumberOfLines="0" NumberOfStrips="0" NumberOfPolys="0">
<PointData>
 <DataArray type="Float64" Name="speed" format="ascii">2.0237 13.3461 12.3512 13.3979 13.3931 12.9163 12.5487 12.1986 12.2249 12.2364 12.8929 12.6425 13.255 13.2543 12.2531 12.2261 12.7179 12.3944 13.1412 12.9513 12.6745 13.2634 12.799 12.786 13.2964 13.3611 13.0675 12.203 12.5837 13.1102 13.3414 12.9368 12.4131 12.8553 13.0006 12.2179 13.0703 12.1973 12.5893 12.7582 12.7553 12.1726 12.5588 13.0297 12.5875 12.4996 13.268 12.5399 12.5205 12.3351 12.3832 13.3463 12.5471 12.773 13.3641 12.1421 12.9652 13.2691 13.2413 12.466 13.0757 13.1568 12.6023 13.3929 13.3063 12.8578 13.2175 12.8323 13.2925 13.0344 12.1283 12.7431 12.8966 12.3544 12.2425 12.1404 12.6616 12.7838 12.9933 6.7875 0.915544</DataArray>
</PointData>
<CellData/>
<Points>
 <DataArray type="Float64" Name="Points" NumberOfComponents="3" format="ascii">2397.2 600.789 0 2398.89 596.301 0 2361.25 568.133 0 2329.87 544.595 0 2307.22 527.605 0 2269.62 499.411 0 2248.02 483.205 0 2213.79 457.536 0 2175.7 428.966 0 2154.88 413.351 0 2120.63 387.664 0 2086.93 362.388 0 2054.57 338.116 0 2030.18 319.826 0 2007.09 893.373 0 1983.68 910.927 0 1963.54 269.844 0 1924.42 240.509 0 1904.6 970.235 0 1878.49 989.819 0 1849.48 184.302 0 1824.12 165.285 0 1791.82 1054.83 0 1764.29 1075.47 0 1741.35 103.203 0 1713.22 82.108 0 1689.62 1131.48 0 1656.91 1156 0 1633.51 22.3231 0 1607.02 2.45481 0 1564.66 -1.65 0 1545.71 1198.35 0 1499.49 1198.35 0 1455.29 -1.65 0 1421.24 -1.65 0 1402.1 1198.35 0 1362.16 1198.35 0 1336.13 -1.65 0 1295.81 -1.65 0 1274.44 1198.35 0 1234.08 1198.35 0 1213.73 -1.65 0 1166.13 -1.65 0 1132.27 1198.35 0 1095.4 1198.35 0 1070.7 -1.65 0 1018.02 -1.65 0 987.023 -1.65 0 959.88 1198.35 0 923.645 1198.35 0 899.416 -1.65 0 859.106 1198.35 0 827.749 -1.65 0 796.852 0.563698 0 764.136 25.5856 0 731.413 50.1282 0 703.58 1124.87 0 674.679 92.6785 0 642.731 116.639 0 614.36 137.918 0 585.287 159.723 0 553.041 183.908 0 517.849 210.302 0 484.404 235.385 0 455.993 256.694 0 413.109 288.857 0 392.098 891.259 0 359.636 866.913 0 342.816 341.577 0 306.959 368.47 0 272.254 801.376 0 240.466 777.535 0 219.405 434.136 0 185.286 459.725 0 155.751 713.999 0 130.175 501.059 0 101.887 522.274 0 74.8215 542.574 0 40.824 568.072 0 12.9501 588.977 0 0.852817 597.829 0</DataArray>
</Points>
<Verts>
 <DataArray type="Int64" Name="connectivity" format="ascii">0 1 2 3 4 5 6 7 8 9 10 11 12 13 14 15 16 17 18 19 20 21 22 23 24 25 26 27 28 29 30 31 32 33 34 35 36 37 38 39 40 41 42 43 44 45 46 47 48 49 50 51 52 53 54 55 56 57 58 59 60 61 62 63 64 65 66 67 68 69 70 71 72 73 74 75 76 77 78 79 80</DataArray>
 <DataArray type="Int64" Name="offsets" format="ascii">81</DataArray>
</Verts>
<Lines>
 <DataArray type="Int64" Name="connectivity" format="ascii"/>
 <DataArray type="Int64" Name="offsets" format="ascii"/>
</Lines>
<Stripes>
 <DataArray type="Int64" Name="connectivity" format="ascii"/>
 <DataArray type="Int64" Name="offsets" format="ascii"/>
</Stripes>
<Polys>
 <DataArray type="Int64" Name="connectivity" format="ascii"/>
 <DataArray type="Int64" Name="offsets" format="ascii"/>
</Polys>
</Piece>
</PolyData>
</VTKFile>