<?xml version="1.0" encoding="UTF-8" ?>
<VTKFile type="PolyData" version="0.1" order="LittleEndian">
<PolyData>
 <Piece NumberOfPoints="78" NumberOfVerts="1" NumberOfLines="0" NumberOfStrips="0" NumberOfPolys="0">
<PointData>
 <DataArray type="Float64" Name="speed" format="ascii">6.30761 12.317 12.2822 13.0222 12.7545 13.1936 12.5823 12.8847 12.3197 13.2706 12.5138 12.2157 12.8214 12.7731 12.6578 13.1621 13.1281 12.1738 13.2943 13.3165 12.622 12.2214 12.2736 13.2343 12.8395 13.0577 12.4952 13.0155 13.1326 12.2611 12.5399 12.8728 12.4355 13.0996 13.3277 12.1251 12.4133 12.9148 12.196 12.2611 12.4679 12.9092 12.4305 13.3484 12.3873 12.6261 12.1199 12.637 12.78 13.0956 12.1548 12.7408 13.3081 12.967 12.3447 12.4516 12.4025 13.128 12.2893 13.0753 13.3645 12.905 13.3358 13.0067 12.5524 13.2142 12.1341 12.4834 12.3216 12.6951 12.7401 13.2099 12.6563 13.118 12.8721 12.4179 9.55688 3.76639</DataArray>
</PointData>
<CellData/>
<Points>
 <DataArray type="Float64" Name="Points" NumberOfComponents="3" format="ascii">2391.56 605.017 0 2373.65 618.453 0 2353.37 562.222 0 2329.37 544.219 0 2295.32 677.2 0 2264.99 699.949 0 2248.79 483.787 0 2221.05 462.981 0 2179.18 431.575 0 2157.81 415.55 0 2119.58 386.876 0 2089.24 364.124 0 2060.44 342.522 0 2025.73 316.492 0 2003.32 299.681 0 1971.26 275.635 0 1935.22 248.608 0 1911.29 230.658 0 1867.25 197.634 0 1838.53 176.089 0 1804.13 150.29 0 1775.46 128.789 0 1749.69 109.462 0 1716.95 84.908 0 1681.34 58.1984 0 1644.15 30.3068 0 1613.81 7.54886 0 1573.51 -1.65 0 1540.55 -1.65 0 1499.62 -1.65 0 1468.03 -1.65 0 1412.71 -1.65 0 1382.9 -1.65 0 1362.94 1198.35 0 1324.73 1198.35 0 1284.8 -1.65 0 1262.34 -1.65 0 1226.72 -1.65 0 1179.5 1198.35 0 1142.25 1198.35 0 1114.61 -1.65 0 1081.09 -1.65 0 1034.43 -1.65 0 998.981 -1.65 0 958.752 1198.35 0 937.21 -1.65 0 912.671 -1.65 0 869.894 1198.35 0 821.729 1198.35 0 802.038 -1.59655 0 765.998 24.189 0 736.795 46.0917 0 725.971 1141.67 0 682.685 1109.2 0 653.353 108.673 0 622.037 132.16 0 597.772 1045.52 0 559.617 1016.9 0 546.413 188.878 0 506.977 218.455 0 484.266 235.489 0 451.234 260.263 0 422.593 281.744 0 389.157 306.821 0 360.258 328.495 0 330.152 351.075 0 309.012 828.945 0 277.902 805.612 0 247.68 412.929 0 221.971 763.664 0 189.688 739.451 0 169.068 471.888 0 133.776 498.357 0 110.763 680.258 0 82.4052 536.886 0 47.819 562.826 0 23.6337 580.965 0 4.70797 595.159 0</DataArray>
</Points>
<Verts>
 <DataArray type="Int64" Name="connectivity" format="ascii">0 1 2 3 4 5 6 7 8 9 10 11 12 13 14 15 16 17 18 19 20 21 22 23 24 25 26 27 28 29 30 31 32 33 34 35 36 37 38 39 40 41 42 43 44 45 46 47 48 49 50 51 52 53 54 55 56 57 58 59 60 61 62 63 64 65 66 67 68 69 70 71 72 73 74 75 76 77</DataArray>
 <DataArray type="Int64" Name="offsets" format="ascii">78</DataArray>
</Verts>
<Lines>
 <DataArray type="Int64" Name="connectivity" format="ascii"/>
 <DataArray type="Int64" Name="offsets" format="ascii"/>
</Lines>
<Stripes>
 <DataArray type="Int64" Name="connectivity" format="ascii"/>
 <DataArray type="Int64" Name="offsets" format="ascii"/>
</Stripes>
<Polys>
 <DataArray type="Int64" Name="connectivity" format="ascii"/>
 <DataArray type="Int64" Name="offsets" format="ascii"/>
</Polys>
</Piece>
</PolyData>
</VTKFile>