<?xml version="1.0" encoding="UTF-8" ?>
<VTKFile type="PolyData" version="0.1" order="LittleEndian">
<PolyData>
 <Piece NumberOfPoints="79" NumberOfVerts="1" NumberOfLines="0" NumberOfStrips="0" NumberOfPolys="0">
<PointData>
 <DataArray type="Float64" Name="speed" format="ascii">12.7891 12.934 12.7402 12.3029 13.1445 12.3388 12.8119 13.4024 13.3616 13.2709 13.3399 13.0544 12.884 12.9872 12.9044 12.4462 12.4772 12.1903 13.0028 12.4261 12.276 13.1228 12.4906 12.1976 12.8323 12.8564 12.3723 12.1137 12.2602 12.9323 13.3422 13.2788 12.9499 12.8465 13.1331 13.172 13.1265 13.3031 13.1114 12.9681 13.3954 12.6823 12.876 12.9104 12.934 12.737 12.1268 12.7979 12.4749 12.2771 12.33 13.2515 12.3086 12.792 13.3937 12.3994 12.2871 12.6051 12.381 13.069 12.6138 12.6466 12.92 13.2531 13.0271 12.3268 12.82 12.4517 12.6625 12.6746 9.96383 5.981 2.53794 6.65275 13.403 12.3786 13.3015 12.4986 12.8108</DataArray>
</PointData>
<CellData/>
<Points>
 <DataArray type="Float64" Name="Points" NumberOfComponents="3" format="ascii">2232.81 471.802 0 2198.65 446.178 0 2184.2 760.538 0 2135.71 796.905 0 2120.19 387.338 0 2091.4 365.741 0 2059.61 341.903 0 2029.61 876.483 0 1999.34 899.179 0 1984.41 285.496 0 1952.94 261.896 0 1918.87 959.533 0 1899.04 221.47 0 1858.78 191.28 0 1837.48 175.304 0 1799.5 146.814 0 1775.96 129.159 0 1746.41 107 0 1712.39 81.4886 0 1687.33 62.6873 0 1643.39 29.7348 0 1618.41 11.0026 0 1574.21 -1.65 0 1541.2 -1.65 0 1502.48 -1.65 0 1473.51 -1.65 0 1448.62 -1.65 0 1399.58 -1.65 0 1365.29 -1.65 0 1319.69 1198.35 0 1288.05 1198.35 0 1264.86 -1.65 0 1213.3 -1.65 0 1183.84 -1.65 0 1154.9 -1.65 0 1103.2 -1.65 0 1066.45 -1.65 0 1028.78 -1.65 0 981.696 -1.65 0 940.062 -1.65 0 910.841 1198.35 0 881.864 1198.35 0 854.866 -1.65 0 809.586 -1.65 0 781.959 12.2186 0 757.268 1165.14 0 734.834 47.5625 0 706.722 68.6465 0 675.947 91.7279 0 638.862 119.541 0 614.118 138.1 0 585.806 1036.54 0 560.613 178.229 0 531.398 200.14 0 505.245 219.755 0 473.103 243.861 0 437.159 270.819 0 410.527 290.793 0 380.328 313.443 0 351.405 335.135 0 321.59 357.496 0 288.112 382.605 0 257.558 405.52 0 225.657 429.447 0 194.462 452.843 0 164.629 475.218 0 134.819 497.575 0 115.094 683.506 0 88.2562 663.377 0 64.4699 550.337 0 28.134 577.589 0 9.94356 604.643 0 2.18685 596.906 0 2395.92 601.747 0 2387.13 587.541 0 2348.93 558.889 0 2316.16 661.57 0 2288.68 513.704 0 2252.91 486.879 0</DataArray>
</Points>
<Verts>
 <DataArray type="Int64" Name="connectivity" format="ascii">0 1 2 3 4 5 6 7 8 9 10 11 12 13 14 15 16 17 18 19 20 21 22 23 24 25 26 27 28 29 30 31 32 33 34 35 36 37 38 39 40 41 42 43 44 45 46 47 48 49 50 51 52 53 54 55 56 57 58 59 60 61 62 63 64 65 66 67 68 69 70 71 72 73 74 75 76 77 78</DataArray>
 <DataArray type="Int64" Name="offsets" format="ascii">79</DataArray>
</Verts>
<Lines>
 <DataArray type="Int64" Name="connectivity" format="ascii"/>
 <DataArray type="Int64" Name="offsets" format="ascii"/>
</Lines>
<Stripes>
 <DataArray type="Int64" Name="connectivity" format="ascii"/>
 <DataArray type="Int64" Name="offsets" format="ascii"/>
</Stripes>
<Polys>
 <DataArray type="Int64" Name="connectivity" format="ascii"/>
 <DataArray type="Int64" Name="offsets" format="ascii"/>
</Polys>
</Piece>
</PolyData>
</VTKFile>