<?xml version="1.0" encoding="UTF-8" ?>
<VTKFile type="PolyData" version="0.1" order="LittleEndian">
<PolyData>
 <Piece NumberOfPoints="76" NumberOfVerts="1" NumberOfLines="0" NumberOfStrips="0" NumberOfPolys="0">
<PointData>
 <DataArray type="Float64" Name="speed" format="ascii">10.3716 13.3613 12.7914 12.7642 12.5616 12.1851 12.5917 13.0096 13.0702 12.7429 12.3979 12.9029 13.0608 12.2792 13.1831 12.7979 12.6724 12.3023 13.1612 13.1695 12.538 12.8911 13.2994 12.9455 13.2195 13.0556 13.1042 12.5229 12.3895 12.1113 12.9661 12.7163 12.3677 13.3881 12.9327 12.4258 12.8002 12.6456 12.9317 12.825 12.145 13.0337 13.1464 12.1671 12.237 12.4527 12.843 12.4683 13.2538 13.2318 12.9526 12.2528 12.6222 13.2575 12.541 13.0534 13.3919 12.7931 12.5588 12.8306 12.2243 12.7177 12.3518 12.5063 12.1583 12.8848 13.1775 13.2847 12.5629 12.623 13.3471 13.124 12.8787 9.19329 3.89294 0</DataArray>
</PointData>
<CellData/>
<Points>
 <DataArray type="Float64" Name="Points" NumberOfComponents="3" format="ascii">2388.99 588.936 0 2363.42 569.761 0 2338.83 551.312 0 2290.91 515.374 0 2263.72 494.98 0 2229.65 469.428 0 2203.79 450.031 0 2176.48 429.556 0 2142.61 404.147 0 2114.61 383.15 0 2087.91 363.126 0 2049.77 334.52 0 2018.71 311.228 0 1997.11 295.028 0 1972.31 919.458 0 1938.54 251.096 0 1911.9 231.117 0 1884.03 210.217 0 1844.68 180.703 0 1823.84 165.071 0 1786.04 136.722 0 1765.86 121.589 0 1721.19 88.0879 0 1712.4 1114.38 0 1673.33 1143.69 0 1645.25 31.1275 0 1620.24 12.3746 0 1593.62 -1.65 0 1545.45 -1.65 0 1514.93 -1.65 0 1481.56 -1.65 0 1428.34 -1.65 0 1404.67 -1.65 0 1364.89 -1.65 0 1318.08 -1.65 0 1288.3 -1.65 0 1247.07 -1.65 0 1210.38 -1.65 0 1165.63 1198.35 0 1124.23 1198.35 0 1088.59 -1.65 0 1055.81 -1.65 0 1008.02 1198.35 0 975.838 1198.35 0 947.663 -1.65 0 912.355 -1.65 0 870.311 1198.35 0 837.394 1198.35 0 813.855 -1.65 0 783.766 10.8634 0 743.007 41.4323 0 716.493 61.3177 0 689.289 81.7214 0 649.869 111.286 0 623.822 130.822 0 595.165 152.314 0 560.716 178.151 0 534.284 197.975 0 500.341 223.433 0 473.278 243.73 0 436.57 271.261 0 400.198 298.54 0 368.933 321.989 0 337.693 345.419 0 307.306 368.21 0 281.301 387.713 0 243.452 416.1 0 204.09 445.622 0 182.084 462.127 0 147.466 488.09 0 114.449 512.853 0 84.8889 535.023 0 55.3353 557.188 0 21.5491 582.528 0 5.06793 594.889 0 0.1 598.35 0</DataArray>
</Points>
<Verts>
 <DataArray type="Int64" Name="connectivity" format="ascii">0 1 2 3 4 5 6 7 8 9 10 11 12 13 14 15 16 17 18 19 20 21 22 23 24 25 26 27 28 29 30 31 32 33 34 35 36 37 38 39 40 41 42 43 44 45 46 47 48 49 50 51 52 53 54 55 56 57 58 59 60 61 62 63 64 65 66 67 68 69 70 71 72 73 74 75</DataArray>
 <DataArray type="Int64" Name="offsets" format="ascii">76</DataArray>
</Verts>
<Lines>
 <DataArray type="Int64" Name="connectivity" format="ascii"/>
 <DataArray type="Int64" Name="offsets" format="ascii"/>
</Lines>
<Stripes>
 <DataArray type="Int64" Name="connectivity" format="ascii"/>
 <DataArray type="Int64" Name="offsets" format="ascii"/>
</Stripes>
<Polys>
 <DataArray type="Int64" Name="connectivity" format="ascii"/>
 <DataArray type="Int64" Name="offsets" format="ascii"/>
</Polys>
</Piece>
</PolyData>
</VTKFile>