<?xml version="1.0" encoding="UTF-8" ?>
<VTKFile type="PolyData" version="0.1" order="LittleEndian">
<PolyData>
 <Piece NumberOfPoints="54" NumberOfVerts="1" NumberOfLines="0" NumberOfStrips="0" NumberOfPolys="0">
<PointData>
 <DataArray type="Float64" Name="speed" format="ascii">0.000653461 12.7084 12.3457 12.8364 13.0299 12.2143 13.4068 13.1636 12.119 12.3972 12.579 13.2578 12.1641 12.7059 12.214 13.3769 12.8359 12.4166 12.1745 12.981 12.6223 13.056 13.1095 12.9306 12.7358 12.6843 12.8228 12.4122 12.3588 13.3304 12.3423 12.15 12.6317 12.7823 12.4954 12.436 12.2803 13.0363 13.1762 12.3518 12.6323 12.5392 13.0587 12.6725 12.4234 13.1609 13.0997 12.2512 13.2494 12.8168 12.9685 13.2077 12.834 13.2036</DataArray>
</PointData>
<CellData/>
<Points>
 <DataArray type="Float64" Name="Points" NumberOfComponents="3" format="ascii">2398.01 600.181 0 2391.15 590.554 0 2370.05 574.728 0 2345.17 639.808 0 2314.6 662.737 0 2291.63 515.915 0 2268.52 697.296 0 2238.43 476.017 0 2210.01 454.699 0 2181.04 432.97 0 2149.43 409.262 0 2117.53 810.542 0 2093.57 367.369 0 2060.25 342.382 0 2037.48 325.305 0 2002.73 299.244 0 1968.86 273.836 0 1929.49 244.312 0 1898.91 221.373 0 1870.36 199.964 0 1831.03 170.466 0 1811.17 1040.31 0 1775.38 1067.15 0 1760.3 117.418 0 1722.91 89.3716 0 1692.62 1129.22 0 1659.52 1154.05 0 1629.67 19.446 0 1603.95 0.235226 0 1558.07 1198.35 0 1525.55 -1.65 0 1491.7 -1.65 0 1457.81 -1.65 0 1418.61 -1.65 0 1374.3 -1.65 0 1346.34 -1.65 0 1307.51 -1.65 0 1264.17 -1.65 0 1243.18 1198.35 0 1210.24 1198.35 0 1176.51 -1.65 0 1136.06 -1.65 0 1110.14 1198.35 0 1069.24 1198.35 0 1036.11 -1.65 0 1009.26 -1.65 0 961.536 1198.35 0 923.121 1198.35 0 902.636 -1.65 0 864.338 -1.65 0 842.081 1198.35 0 811.911 -1.65 0 783.129 11.3409 0 756.156 1164.3 0</DataArray>
</Points>
<Verts>
 <DataArray type="Int64" Name="connectivity" format="ascii">0 1 2 3 4 5 6 7 8 9 10 11 12 13 14 15 16 17 18 19 20 21 22 23 24 25 26 27 28 29 30 31 32 33 34 35 36 37 38 39 40 41 42 43 44 45 46 47 48 49 50 51 52 53</DataArray>
 <DataArray type="Int64" Name="offsets" format="ascii">54</DataArray>
</Verts>
<Lines>
 <DataArray type="Int64" Name="connectivity" format="ascii"/>
 <DataArray type="Int64" Name="offsets" format="ascii"/>
</Lines>
<Stripes>
 <DataArray type="Int64" Name="connectivity" format="ascii"/>
 <DataArray type="Int64" Name="offsets" format="ascii"/>
</Stripes>
<Polys>
 <DataArray type="Int64" Name="connectivity" format="ascii"/>
 <DataArray type="Int64" Name="offsets" format="ascii"/>
</Polys>
</Piece>
</PolyData>
</VTKFile>