<?xml version="1.0" encoding="UTF-8" ?>
<VTKFile type="PolyData" version="0.1" order="LittleEndian">
<PolyData>
 <Piece NumberOfPoints="78" NumberOfVerts="1" NumberOfLines="0" NumberOfStrips="0" NumberOfPolys="0">
<PointData>
 <DataArray type="Float64" Name="speed" format="ascii">4.85306 12.4975 13.373 12.9149 13.2736 13.185 12.9935 12.8026 12.1446 12.6534 12.4493 13.2957 12.807 12.8046 12.7018 13.0351 12.6931 13.2101 12.2228 13.3403 12.7878 12.7565 13.3359 12.5675 13.2558 13.3359 12.2615 12.918 12.3075 12.2604 13.3946 13.122 13.092 12.8538 12.7308 13.0206 12.5834 12.3482 13.2234 12.4184 13.0899 13.2882 12.94 12.477 12.1371 13.2826 13.249 12.829 12.3199 13.1426 12.7902 12.7012 13.1964 13.3598 12.9624 12.9219 12.123 13.1974 12.563 13.1758 12.9772 13.3827 12.478 12.3451 12.7774 13.0249 12.4702 13.3876 12.1961 12.9372 12.7345 12.1191 12.894 12.9868 13.0856 13.2095 5.5038 0</DataArray>
</PointData>
<CellData/>
<Points>
 <DataArray type="Float64" Name="Points" NumberOfComponents="3" format="ascii">2392.49 604.319 0 2363.42 626.12 0 2343.04 641.41 0 2318.69 536.212 0 2285.15 511.055 0 2266.53 698.789 0 2235.19 722.297 0 2205.6 451.39 0 2186.25 436.878 0 2147.23 788.262 0 2118.25 810.003 0 2099.21 371.598 0 2062.36 343.963 0 2030.58 320.13 0 1992.45 291.527 0 1974.5 278.064 0 1936.27 249.397 0 1902.78 971.606 0 1882 208.691 0 1857.47 190.297 0 1827.71 167.975 0 1797.16 145.062 0 1765.36 121.214 0 1730.78 95.2767 0 1708.34 78.4498 0 1680.16 57.3161 0 1651.86 36.0849 0 1609.58 4.3784 0 1574.96 -1.65 0 1532.86 -1.65 0 1500.89 -1.65 0 1466.77 -1.65 0 1421.01 -1.65 0 1385.83 -1.65 0 1353.88 -1.65 0 1304.39 -1.65 0 1273.61 -1.65 0 1237.93 -1.65 0 1208.83 1198.35 0 1169.41 -1.65 0 1135.4 -1.65 0 1096.42 -1.65 0 1050.4 -1.65 0 1020.67 -1.65 0 979.143 -1.65 0 947.071 -1.65 0 896.217 -1.65 0 883.133 1198.35 0 839.486 1198.35 0 801.81 -1.56693 0 774.95 17.4754 0 749.14 36.8329 0 714.657 62.6952 0 689.096 81.8657 0 662.319 101.949 0 618.754 134.622 0 594.79 152.596 0 566.283 173.976 0 529.237 201.761 0 504.502 220.312 0 474.448 242.853 0 445.471 264.586 0 404.96 900.906 0 378.2 880.836 0 349.386 336.649 0 319.868 358.788 0 284.017 810.199 0 258.561 791.106 0 237.2 420.789 0 206.229 444.017 0 173.428 727.257 0 146.49 707.053 0 129.331 501.691 0 96.1382 526.586 0 63.0824 551.378 0 36.3911 571.397 0 9.39692 591.642 0 0.1 598.35 0</DataArray>
</Points>
<Verts>
 <DataArray type="Int64" Name="connectivity" format="ascii">0 1 2 3 4 5 6 7 8 9 10 11 12 13 14 15 16 17 18 19 20 21 22 23 24 25 26 27 28 29 30 31 32 33 34 35 36 37 38 39 40 41 42 43 44 45 46 47 48 49 50 51 52 53 54 55 56 57 58 59 60 61 62 63 64 65 66 67 68 69 70 71 72 73 74 75 76 77</DataArray>
 <DataArray type="Int64" Name="offsets" format="ascii">78</DataArray>
</Verts>
<Lines>
 <DataArray type="Int64" Name="connectivity" format="ascii"/>
 <DataArray type="Int64" Name="offsets" format="ascii"/>
</Lines>
<Stripes>
 <DataArray type="Int64" Name="connectivity" format="ascii"/>
 <DataArray type="Int64" Name="offsets" format="ascii"/>
</Stripes>
<Polys>
 <DataArray type="Int64" Name="connectivity" format="ascii"/>
 <DataArray type="Int64" Name="offsets" format="ascii"/>
</Polys>
</Piece>
</PolyData>
</VTKFile>