<?xml version="1.0" encoding="UTF-8" ?>
<VTKFile type="PolyData" version="0.1" order="LittleEndian">
<PolyData>
 <Piece NumberOfPoints="78" NumberOfVerts="1" NumberOfLines="0" NumberOfStrips="0" NumberOfPolys="0">
<PointData>
 <DataArray type="Float64" Name="speed" format="ascii">5.15759e-009 12.1823 13.1514 12.1407 12.4489 13.029 12.6791 12.5119 13.1962 12.8089 12.7478 12.2103 13.1007 12.4504 12.6362 12.8265 12.5881 12.6942 12.4119 13.3226 12.6122 12.3545 13.0638 12.8376 13.0455 12.6293 12.3639 12.4439 12.1916 12.1908 12.1682 12.4122 13.2042 13.3492 13.3122 12.7387 12.7617 12.3192 12.4494 12.8811 13.1931 12.7668 13.0508 13.0915 12.8151 12.72 12.7913 12.8667 13.2797 12.3837 13.2279 12.3912 13.1374 12.4153 12.1294 13.1739 12.9699 12.1503 12.9778 12.8537 13.2007 12.3296 13.0666 12.2147 13.3705 12.6202 12.8711 13.1232 12.688 12.8634 12.506 12.8698 12.6688 12.4987 12.7741 12.2464 9.91091 4.66498</DataArray>
</PointData>
<CellData/>
<Points>
 <DataArray type="Float64" Name="Points" NumberOfComponents="3" format="ascii">2398.01 600.181 0 2398.6 596.106 0 2371.01 575.449 0 2332.88 546.851 0 2311.17 530.571 0 2266.66 497.186 0 2243.7 479.968 0 2203.6 449.891 0 2180.48 432.553 0 2146.58 407.13 0 2121.96 388.659 0 2101.46 373.291 0 2063.23 344.613 0 2037.3 325.166 0 2001.83 897.316 0 1975.2 917.284 0 1955.8 264.042 0 1912.51 231.575 0 1885.5 211.317 0 1867.32 197.681 0 1824.36 165.464 0 1793.17 142.067 0 1768.27 123.393 0 1728.57 93.6218 0 1691.1 65.5156 0 1677.13 1140.84 0 1648.28 1162.48 0 1631.7 20.9705 0 1589.99 -1.65 0 1557.92 -1.65 0 1523.91 1198.35 0 1493.05 -1.65 0 1463.96 -1.65 0 1424.23 -1.65 0 1379.89 -1.65 0 1345.39 -1.65 0 1312.72 1198.35 0 1278.86 -1.65 0 1245.27 -1.65 0 1210.25 -1.65 0 1168.32 -1.65 0 1129.06 -1.65 0 1088.76 -1.65 0 1052.54 -1.65 0 1013.76 -1.65 0 980.863 -1.65 0 938.586 -1.65 0 898.571 -1.65 0 859.925 -1.65 0 825.237 -1.65 0 787.81 7.83027 0 755.55 32.0252 0 736.097 1149.26 0 712.828 1131.81 0 685.852 84.2988 0 645.568 114.512 0 623.019 1064.45 0 608.79 142.096 0 573.71 168.406 0 542.401 191.887 0 509.475 216.582 0 473.421 243.623 0 445.514 264.553 0 426.544 278.78 0 387.171 308.311 0 356.901 331.013 0 326.95 353.477 0 295.246 377.255 0 267.672 397.935 0 237.22 420.775 0 203.791 445.846 0 175.938 466.736 0 144.916 490.003 0 116.121 511.599 0 87.8283 532.819 0 55.9389 556.736 0 23.0978 581.367 0 5.95995 594.22 0</DataArray>
</Points>
<Verts>
 <DataArray type="Int64" Name="connectivity" format="ascii">0 1 2 3 4 5 6 7 8 9 10 11 12 13 14 15 16 17 18 19 20 21 22 23 24 25 26 27 28 29 30 31 32 33 34 35 36 37 38 39 40 41 42 43 44 45 46 47 48 49 50 51 52 53 54 55 56 57 58 59 60 61 62 63 64 65 66 67 68 69 70 71 72 73 74 75 76 77</DataArray>
 <DataArray type="Int64" Name="offsets" format="ascii">78</DataArray>
</Verts>
<Lines>
 <DataArray type="Int64" Name="connectivity" format="ascii"/>
 <DataArray type="Int64" Name="offsets" format="ascii"/>
</Lines>
<Stripes>
 <DataArray type="Int64" Name="connectivity" format="ascii"/>
 <DataArray type="Int64" Name="offsets" format="ascii"/>
</Stripes>
<Polys>
 <DataArray type="Int64" Name="connectivity" format="ascii"/>
 <DataArray type="Int64" Name="offsets" format="ascii"/>
</Polys>
</Piece>
</PolyData>
</VTKFile>