<?xml version="1.0" encoding="UTF-8" ?>
<VTKFile type="PolyData" version="0.1" order="LittleEndian">
<PolyData>
 <Piece NumberOfPoints="78" NumberOfVerts="1" NumberOfLines="0" NumberOfStrips="0" NumberOfPolys="0">
<PointData>
 <DataArray type="Float64" Name="speed" format="ascii">4.2777e-007 12.3466 13.1807 12.9674 13.2645 12.685 12.7952 12.8271 13.0804 13.3766 12.772 12.4851 12.8309 12.2335 12.6522 12.1638 13.2575 12.748 12.1418 12.3432 13.3015 13.3361 12.8853 12.1402 12.5287 12.5789 12.8489 13.334 12.9533 12.7912 12.8433 13.2348 12.3127 13.1706 13.1119 12.2745 12.8231 12.7519 13.0466 12.7661 12.2742 12.4974 12.2522 13.2481 12.7772 12.8936 12.1536 13.0458 12.7439 13.0817 12.4129 12.7881 12.7444 12.1668 13.0593 13.3435 12.8915 12.6644 12.2479 13.2891 12.762 12.3405 12.2644 12.2166 12.5061 13.0549 12.3291 12.2358 12.5954 13.4028 12.3563 12.2105 12.1439 12.8182 13.3247 11.7783 6.4743 0</DataArray>
</PointData>
<CellData/>
<Points>
 <DataArray type="Float64" Name="Points" NumberOfComponents="3" format="ascii">2398.01 600.181 0 2400.67 597.517 0 2383.27 584.647 0 2341.57 553.369 0 2312.77 664.111 0 2288.73 513.737 0 2261.43 493.263 0 2237.5 475.318 0 2205.11 451.028 0 2171.46 425.786 0 2136.09 399.257 0 2116.73 384.738 0 2087.84 363.071 0 2061.21 343.098 0 2017.67 310.445 0 1989.44 289.275 0 1955.28 263.65 0 1929.52 244.335 0 1901.87 223.595 0 1864.51 195.577 0 1839.41 176.75 0 1813.49 157.308 0 1774.17 127.821 0 1743.39 104.735 0 1720.54 87.595 0 1695.94 1126.73 0 1662.02 43.711 0 1638.41 25.9988 0 1609.81 4.5476 0 1560.83 -1.65 0 1533.12 -1.65 0 1487.88 -1.65 0 1458.76 -1.65 0 1406.69 -1.65 0 1394.27 1198.35 0 1346.52 1198.35 0 1313.65 -1.65 0 1278.37 -1.65 0 1247.75 -1.65 0 1200.54 -1.65 0 1171.86 -1.65 0 1138.15 -1.65 0 1084.01 -1.65 0 1058.84 -1.65 0 1021.54 -1.65 0 975.204 -1.65 0 943.208 -1.65 0 903.089 -1.65 0 867.709 -1.65 0 820.383 1198.35 0 785.817 1186.55 0 755.114 32.3523 0 726.588 53.7464 0 689.761 1114.51 0 667.762 1098.01 0 644.251 115.5 0 615.545 137.029 0 579.846 1032.07 0 555.222 1013.6 0 536.274 196.483 0 507.873 217.784 0 469.226 246.769 0 443.483 266.077 0 410.429 290.867 0 374.283 317.976 0 349.373 336.659 0 319.998 358.691 0 285.713 384.404 0 258.39 404.897 0 224.052 430.65 0 195.614 451.979 0 160.019 478.675 0 124.427 505.369 0 92.9654 528.966 0 64.0933 550.62 0 32.7835 574.102 0 10.7646 590.617 0 0.1 598.35 0</DataArray>
</Points>
<Verts>
 <DataArray type="Int64" Name="connectivity" format="ascii">0 1 2 3 4 5 6 7 8 9 10 11 12 13 14 15 16 17 18 19 20 21 22 23 24 25 26 27 28 29 30 31 32 33 34 35 36 37 38 39 40 41 42 43 44 45 46 47 48 49 50 51 52 53 54 55 56 57 58 59 60 61 62 63 64 65 66 67 68 69 70 71 72 73 74 75 76 77</DataArray>
 <DataArray type="Int64" Name="offsets" format="ascii">78</DataArray>
</Verts>
<Lines>
 <DataArray type="Int64" Name="connectivity" format="ascii"/>
 <DataArray type="Int64" Name="offsets" format="ascii"/>
</Lines>
<Stripes>
 <DataArray type="Int64" Name="connectivity" format="ascii"/>
 <DataArray type="Int64" Name="offsets" format="ascii"/>
</Stripes>
<Polys>
 <DataArray type="Int64" Name="connectivity" format="ascii"/>
 <DataArray type="Int64" Name="offsets" format="ascii"/>
</Polys>
</Piece>
</PolyData>
</VTKFile>