<?xml version="1.0" encoding="UTF-8" ?>
<VTKFile type="PolyData" version="0.1" order="LittleEndian">
<PolyData>
 <Piece NumberOfPoints="78" NumberOfVerts="1" NumberOfLines="0" NumberOfStrips="0" NumberOfPolys="0">
<PointData>
 <DataArray type="Float64" Name="speed" format="ascii">1.30152 13.0746 13.3495 12.4601 13.2523 12.1331 12.8254 12.8481 12.4776 12.3371 13.3776 13.1 12.7025 13.1651 12.2267 13.1977 12.8098 12.5361 12.1359 12.7229 13.1511 13.2374 12.9935 12.6954 12.4538 12.3037 13.0292 13.2224 13.2885 13.1884 12.5082 12.2747 13.2316 13.052 13.3721 12.4067 12.7835 13.3971 12.8314 12.5858 12.2179 12.3299 13.0593 12.362 12.6981 12.9085 12.6006 12.7823 12.9758 13.2744 13.3403 12.7636 12.9975 12.2266 13.008 12.4257 12.5208 13.2425 12.8973 13.2892 12.1998 12.1488 12.6242 12.3837 12.3384 12.6714 13.2623 13.15 12.7721 12.6271 12.5261 12.5209 13.2518 13.1309 13.2721 11.1003 4.92987 0</DataArray>
</PointData>
<CellData/>
<Points>
 <DataArray type="Float64" Name="Points" NumberOfComponents="3" format="ascii">2397.22 600.771 0 2372.03 576.215 0 2339.48 644.08 0 2316.95 534.905 0 2279.17 506.572 0 2255.7 488.966 0 2220.71 462.728 0 2192.77 441.772 0 2163.91 420.128 0 2128.5 393.567 0 2104.27 375.396 0 2063.84 345.071 0 2038.13 325.787 0 1998.4 295.995 0 1974.23 277.867 0 1942.55 254.104 0 1916.55 234.608 0 1897.15 220.051 0 1859.24 191.626 0 1833.51 172.326 0 1797.15 1050.82 0 1769.53 1071.54 0 1750.07 109.748 0 1708.62 78.6595 0 1683.99 60.1843 0 1662.53 44.0864 0 1619.39 11.7367 0 1586.85 -1.65 0 1554.7 -1.65 0 1504.02 -1.65 0 1459.46 -1.65 0 1440.95 1198.35 0 1403.33 1198.35 0 1381.81 -1.65 0 1334.28 -1.65 0 1301.07 -1.65 0 1268.18 1198.35 0 1238.76 -1.65 0 1207.49 -1.65 0 1168.71 -1.65 0 1124.12 -1.65 0 1089.83 -1.65 0 1058.28 1198.35 0 1025.54 -1.65 0 989.006 -1.65 0 955.652 -1.65 0 912.726 -1.65 0 871.425 -1.65 0 834.867 -1.65 0 797.908 -0.356017 0 766.661 23.6922 0 740.742 43.1311 0 708.765 67.114 0 674.939 92.4836 0 643.098 116.365 0 614.566 137.763 0 582.576 161.756 0 551.443 185.106 0 532.78 996.772 0 507.218 977.6 0 480.761 238.118 0 441.905 267.26 0 419.336 911.688 0 405.275 294.732 0 369.165 321.815 0 337.274 345.733 0 305.19 369.796 0 271.661 394.943 0 242.23 417.017 0 219.739 433.885 0 182.793 461.595 0 150.962 485.468 0 123.92 505.75 0 93.0818 528.878 0 64.9155 550.003 0 31.3405 575.185 0 8.28385 592.477 0 0.1 598.35 0</DataArray>
</Points>
<Verts>
 <DataArray type="Int64" Name="connectivity" format="ascii">0 1 2 3 4 5 6 7 8 9 10 11 12 13 14 15 16 17 18 19 20 21 22 23 24 25 26 27 28 29 30 31 32 33 34 35 36 37 38 39 40 41 42 43 44 45 46 47 48 49 50 51 52 53 54 55 56 57 58 59 60 61 62 63 64 65 66 67 68 69 70 71 72 73 74 75 76 77</DataArray>
 <DataArray type="Int64" Name="offsets" format="ascii">78</DataArray>
</Verts>
<Lines>
 <DataArray type="Int64" Name="connectivity" format="ascii"/>
 <DataArray type="Int64" Name="offsets" format="ascii"/>
</Lines>
<Stripes>
 <DataArray type="Int64" Name="connectivity" format="ascii"/>
 <DataArray type="Int64" Name="offsets" format="ascii"/>
</Stripes>
<Polys>
 <DataArray type="Int64" Name="connectivity" format="ascii"/>
 <DataArray type="Int64" Name="offsets" format="ascii"/>
</Polys>
</Piece>
</PolyData>
</VTKFile>