<?xml version="1.0" encoding="UTF-8" ?>
<VTKFile type="PolyData" version="0.1" order="LittleEndian">
<PolyData>
 <Piece NumberOfPoints="77" NumberOfVerts="1" NumberOfLines="0" NumberOfStrips="0" NumberOfPolys="0">
<PointData>
 <DataArray type="Float64" Name="speed" format="ascii">13.2228 13.0086 12.7305 12.1806 13.0331 13.1328 12.2216 12.5295 13.2063 13.3304 12.4997 13.3617 12.3938 13.2531 12.7094 12.2807 12.2268 12.3239 13.075 12.4705 13.3298 12.9524 12.5181 12.7643 12.8127 12.454 12.9947 13.3374 12.1567 13.289 12.7687 12.8825 12.3193 12.1632 13.0551 13.3913 12.358 13.288 12.74 12.2114 12.9532 12.8682 12.7683 12.4032 13.3832 12.1103 12.7859 13.3286 12.1731 12.7237 12.8633 12.8467 13.3463 12.5627 13.3064 13.3 12.6507 12.9835 13.138 12.4786 12.4092 13.1757 12.562 12.4027 13.1062 12.2491 12.4513 12.374 12.6536 13.0656 12.2931 12.8515 12.8913 13.0066 12.8995 8.07918 2.53716</DataArray>
</PointData>
<CellData/>
<Points>
 <DataArray type="Float64" Name="Points" NumberOfComponents="3" format="ascii">2392.15 591.302 0 2360.16 567.31 0 2330.12 544.785 0 2290.45 680.851 0 2258.29 704.969 0 2231.53 470.84 0 2198.87 446.343 0 2165.71 774.407 0 2139.1 794.363 0 2119.15 386.551 0 2094.42 368.005 0 2058.46 854.846 0 2033.97 873.213 0 2015.61 308.902 0 1987.48 287.803 0 1945.12 256.036 0 1921.68 238.454 0 1884.66 210.684 0 1854.94 188.394 0 1827.03 167.469 0 1791.65 140.933 0 1767.33 122.69 0 1736.31 99.4262 0 1700.87 72.8474 0 1678.1 55.7657 0 1634.82 23.3064 0 1603.98 0.2621 0 1563.28 -1.65 0 1526.69 -1.65 0 1494.52 -1.65 0 1453 -1.65 0 1408.36 -1.65 0 1357.42 -1.65 0 1327.57 -1.65 0 1279.81 -1.65 0 1248.72 -1.65 0 1203.9 -1.65 0 1175.28 -1.65 0 1121.96 -1.65 0 1090.39 -1.65 0 1068.55 1198.35 0 1028.66 1198.35 0 994.298 -1.65 0 969.267 -1.65 0 933.987 -1.65 0 888.948 1198.35 0 847.597 1198.35 0 821.029 -1.65 0 789.644 6.45484 0 752.023 34.6706 0 723.389 56.1457 0 695.531 1118.84 0 675.759 91.8684 0 654.285 107.974 0 620.488 1062.55 0 583.802 1035.04 0 567.367 173.163 0 530.927 200.493 0 502.784 221.601 0 486.925 962.38 0 446.173 931.816 0 420.707 283.159 0 387.734 307.889 0 363.426 869.756 0 326.087 841.751 0 310.672 365.685 0 271.814 394.829 0 249.46 411.594 0 215.856 436.797 0 186.857 458.547 0 154.493 482.82 0 126.196 504.043 0 93.7493 528.378 0 73.7959 652.532 0 43.3014 629.661 0 16.8052 586.086 0 2.29285 599.63 0</DataArray>
</Points>
<Verts>
 <DataArray type="Int64" Name="connectivity" format="ascii">0 1 2 3 4 5 6 7 8 9 10 11 12 13 14 15 16 17 18 19 20 21 22 23 24 25 26 27 28 29 30 31 32 33 34 35 36 37 38 39 40 41 42 43 44 45 46 47 48 49 50 51 52 53 54 55 56 57 58 59 60 61 62 63 64 65 66 67 68 69 70 71 72 73 74 75 76</DataArray>
 <DataArray type="Int64" Name="offsets" format="ascii">77</DataArray>
</Verts>
<Lines>
 <DataArray type="Int64" Name="connectivity" format="ascii"/>
 <DataArray type="Int64" Name="offsets" format="ascii"/>
</Lines>
<Stripes>
 <DataArray type="Int64" Name="connectivity" format="ascii"/>
 <DataArray type="Int64" Name="offsets" format="ascii"/>
</Stripes>
<Polys>
 <DataArray type="Int64" Name="connectivity" format="ascii"/>
 <DataArray type="Int64" Name="offsets" format="ascii"/>
</Polys>
</Piece>
</PolyData>
</VTKFile>