<?xml version="1.0" encoding="UTF-8" ?>
<VTKFile type="PolyData" version="0.1" order="LittleEndian">
<PolyData>
 <Piece NumberOfPoints="79" NumberOfVerts="1" NumberOfLines="0" NumberOfStrips="0" NumberOfPolys="0">
<PointData>
 <DataArray type="Float64" Name="speed" format="ascii">12.1277 13.304 12.7113 13.1637 12.7224 12.4954 12.5527 12.654 12.7466 12.848 12.3719 12.2476 12.2728 13.1549 12.9238 12.7507 12.4742 12.4163 12.7547 12.6084 13.1281 12.533 12.2023 13.1723 12.803 12.8596 13.3303 13.2964 13.3625 13.2414 12.843 13.0066 13.0401 13.0047 12.1169 12.7538 12.81 12.7286 12.6306 12.35 12.7636 12.7272 12.598 13.3802 12.1654 13.116 13.3305 12.5152 12.3095 12.9048 12.4884 13.3571 12.9877 12.6495 12.743 13.227 12.6028 12.457 12.4586 13.2444 12.1188 12.7935 12.5951 12.4948 13.0017 12.3032 13.2828 12.2943 12.6162 12.8637 13.2198 12.8956 12.525 12.469 12.5487 12.8437 11.9371 6.72015 0.525404</DataArray>
</PointData>
<CellData/>
<Points>
 <DataArray type="Float64" Name="Points" NumberOfComponents="3" format="ascii">2381.5 583.318 0 2352 561.192 0 2316.82 534.81 0 2277.37 505.218 0 2250.42 485.006 0 2213.77 457.521 0 2185.99 436.688 0 2149.93 409.642 0 2125.06 390.991 0 2081.7 358.464 0 2060.74 342.749 0 2042.98 866.456 0 2013.25 888.753 0 1982.54 284.094 0 1963.76 270.015 0 1932.5 246.57 0 1892.92 978.998 0 1869.92 996.251 0 1849.86 184.586 0 1815.67 158.947 0 1780.5 132.568 0 1752.75 111.754 0 1720.3 1108.46 0 1707.66 77.9399 0 1680.41 57.4965 0 1649.47 1161.58 0 1609.97 1191.21 0 1590.81 -1.65 0 1545.05 -1.65 0 1511.78 -1.65 0 1497.09 1198.35 0 1446 1198.35 0 1408.99 -1.65 0 1372.65 -1.65 0 1336.4 1198.35 0 1292.88 1198.35 0 1274.3 -1.65 0 1222.13 -1.65 0 1197 -1.65 0 1154.49 -1.65 0 1117.1 -1.65 0 1076.01 -1.65 0 1036.16 -1.65 0 1004.79 -1.65 0 973.4 1198.35 0 939.973 1198.35 0 900.429 -1.65 0 873.521 1198.35 0 829.371 1198.35 0 797.871 -0.335372 0 767.222 23.2714 0 742.17 1153.81 0 718.671 59.6843 0 682.981 86.4522 0 654.98 107.453 0 624.788 130.097 0 591.333 155.188 0 564.007 175.683 0 533.951 198.225 0 500.826 223.069 0 471.712 244.905 0 437.986 270.199 0 404.994 294.943 0 377.832 315.315 0 348.3 337.464 0 327.331 842.685 0 298.114 820.771 0 279.076 389.382 0 248.237 412.511 0 225.468 766.287 0 195.564 743.858 0 166.294 473.969 0 140.28 493.479 0 114.659 683.18 0 88.0683 663.236 0 61.7531 552.375 0 33.9995 573.19 0 12.0499 606.222 0 0.554104 598.615 0</DataArray>
</Points>
<Verts>
 <DataArray type="Int64" Name="connectivity" format="ascii">0 1 2 3 4 5 6 7 8 9 10 11 12 13 14 15 16 17 18 19 20 21 22 23 24 25 26 27 28 29 30 31 32 33 34 35 36 37 38 39 40 41 42 43 44 45 46 47 48 49 50 51 52 53 54 55 56 57 58 59 60 61 62 63 64 65 66 67 68 69 70 71 72 73 74 75 76 77 78</DataArray>
 <DataArray type="Int64" Name="offsets" format="ascii">79</DataArray>
</Verts>
<Lines>
 <DataArray type="Int64" Name="connectivity" format="ascii"/>
 <DataArray type="Int64" Name="offsets" format="ascii"/>
</Lines>
<Stripes>
 <DataArray type="Int64" Name="connectivity" format="ascii"/>
 <DataArray type="Int64" Name="offsets" format="ascii"/>
</Stripes>
<Polys>
 <DataArray type="Int64" Name="connectivity" format="ascii"/>
 <DataArray type="Int64" Name="offsets" format="ascii"/>
</Polys>
</Piece>
</PolyData>
</VTKFile>