<?xml version="1.0" encoding="UTF-8" ?>
<VTKFile type="PolyData" version="0.1" order="LittleEndian">
<PolyData>
 <Piece NumberOfPoints="78" NumberOfVerts="1" NumberOfLines="0" NumberOfStrips="0" NumberOfPolys="0">
<PointData>
 <DataArray type="Float64" Name="speed" format="ascii">5.52524 8.83664 12.424 12.9161 13.2352 13.1854 12.5432 12.3185 12.1316 13.1733 12.3138 12.5204 13.1065 12.6107 13.3136 12.4109 12.7831 12.6539 13.3376 13.4075 12.3587 12.6367 12.8441 12.4361 13.2165 12.2001 12.9657 12.2084 12.2534 13.2536 12.6056 13.1963 12.8177 13.2922 12.5516 12.285 13.3208 13.0667 13.3985 12.9853 12.8609 13.2567 13.2641 12.3679 12.12 12.307 12.8059 12.3636 12.5849 12.5852 12.2986 12.1901 13.2074 13.3077 12.4098 12.711 13.2935 12.3613 12.6566 13.3961 12.4618 13.1025 12.9251 12.1618 13.0981 13.2104 13.0621 12.3066 13.0757 12.2548 13.0463 13.3906 13.063 12.9771 13.2624 11.4684 6.40711 0</DataArray>
</PointData>
<CellData/>
<Points>
 <DataArray type="Float64" Name="Points" NumberOfComponents="3" format="ascii">2395.44 602.105 0 2381.75 612.377 0 2345.26 556.134 0 2317.91 535.628 0 2282.61 686.726 0 2257.47 490.294 0 2224.82 465.804 0 2194.28 752.975 0 2168.1 772.612 0 2140.02 402.204 0 2109.03 378.961 0 2082.33 358.938 0 2055.63 338.913 0 2018.6 311.141 0 1992.09 291.262 0 1966.15 924.078 0 1926.82 953.575 0 1909.34 229.197 0 1880.86 207.834 0 1848.77 183.772 0 1814.51 158.072 0 1781.43 133.267 0 1748.53 108.59 0 1719.08 86.4994 0 1690.5 65.0678 0 1662.4 1151.89 0 1636.55 1171.27 0 1590.53 -1.65 0 1550.8 -1.65 0 1535.13 1198.35 0 1484 1198.35 0 1451.43 1198.35 0 1412.79 -1.65 0 1370.55 -1.65 0 1326.17 -1.65 0 1294.02 -1.65 0 1257.93 -1.65 0 1221.95 -1.65 0 1169.72 -1.65 0 1141.35 -1.65 0 1112.48 -1.65 0 1066.37 -1.65 0 1036.66 -1.65 0 983.99 -1.65 0 947.973 -1.65 0 919.9 -1.65 0 872.622 -1.65 0 833.447 -1.65 0 816.55 1198.35 0 784.11 1185.27 0 767.762 22.8658 0 727.608 52.9814 0 702.859 1124.33 0 666.847 1097.32 0 639.756 1077 0 617.449 135.601 0 581.115 162.852 0 561.992 1018.68 0 532.905 996.865 0 509.825 216.32 0 484.109 235.607 0 449.185 934.075 0 416.583 909.624 0 391.412 305.13 0 360.685 328.175 0 330.959 350.469 0 297.129 375.842 0 268.998 396.941 0 237.226 420.77 0 205.334 751.186 0 185.076 459.882 0 157.084 480.877 0 128.864 502.041 0 92.3698 529.412 0 63.4014 551.139 0 32.844 574.057 0 10.3682 590.914 0 0.1 598.35 0</DataArray>
</Points>
<Verts>
 <DataArray type="Int64" Name="connectivity" format="ascii">0 1 2 3 4 5 6 7 8 9 10 11 12 13 14 15 16 17 18 19 20 21 22 23 24 25 26 27 28 29 30 31 32 33 34 35 36 37 38 39 40 41 42 43 44 45 46 47 48 49 50 51 52 53 54 55 56 57 58 59 60 61 62 63 64 65 66 67 68 69 70 71 72 73 74 75 76 77</DataArray>
 <DataArray type="Int64" Name="offsets" format="ascii">78</DataArray>
</Verts>
<Lines>
 <DataArray type="Int64" Name="connectivity" format="ascii"/>
 <DataArray type="Int64" Name="offsets" format="ascii"/>
</Lines>
<Stripes>
 <DataArray type="Int64" Name="connectivity" format="ascii"/>
 <DataArray type="Int64" Name="offsets" format="ascii"/>
</Stripes>
<Polys>
 <DataArray type="Int64" Name="connectivity" format="ascii"/>
 <DataArray type="Int64" Name="offsets" format="ascii"/>
</Polys>
</Piece>
</PolyData>
</VTKFile>