<?xml version="1.0" encoding="UTF-8" ?>
<VTKFile type="PolyData" version="0.1" order="LittleEndian">
<PolyData>
 <Piece NumberOfPoints="78" NumberOfVerts="1" NumberOfLines="0" NumberOfStrips="0" NumberOfPolys="0">
<PointData>
 <DataArray type="Float64" Name="speed" format="ascii">5.43754e-011 12.7826 12.1494 12.5413 13.2335 12.4605 12.6114 12.3946 13.1393 12.9481 12.2731 13.1021 12.154 12.986 13.1998 13.2601 13.1859 13.0257 12.8037 12.209 12.3509 12.4862 12.1907 13.227 12.9649 12.8108 12.6902 12.7176 13.0418 12.7008 13.1626 12.3654 12.4493 12.4636 12.1808 13.2465 12.8417 12.3616 12.3994 12.4534 12.4842 12.5872 13.066 12.372 12.8149 12.8058 12.3754 13.1066 13.3591 12.9392 12.4335 13.0293 12.8609 12.5093 12.3833 12.6897 12.8455 12.7518 12.9326 12.8219 13.2553 12.3652 13.0808 12.3297 13.2108 12.8372 12.3774 13.3212 12.2971 12.9237 13.2709 13.2539 12.9273 12.5718 12.9214 13.2701 9.06411 1.36432</DataArray>
</PointData>
<CellData/>
<Points>
 <DataArray type="Float64" Name="Points" NumberOfComponents="3" format="ascii">2398.01 600.181 0 2391.45 590.777 0 2352.59 561.638 0 2331.49 545.81 0 2287.81 513.049 0 2264.17 495.321 0 2223.98 465.176 0 2200.26 447.388 0 2167.44 422.772 0 2142.45 404.029 0 2121.19 388.085 0 2084.36 360.464 0 2057.43 340.265 0 2022.31 881.956 0 1995.62 901.972 0 1976.91 279.873 0 1933.44 247.269 0 1906.44 227.023 0 1887.78 213.029 0 1844.34 180.448 0 1813.58 157.381 0 1788.12 138.282 0 1748.32 108.433 0 1712.11 81.2716 0 1697.69 1125.42 0 1668.24 1147.51 0 1652.31 36.4257 0 1613.16 7.0601 0 1583.71 -1.65 0 1549.3 1198.35 0 1519.33 -1.65 0 1489 -1.65 0 1448.93 -1.65 0 1405.58 -1.65 0 1370.41 -1.65 0 1338.1 1198.35 0 1303.88 -1.65 0 1271.04 -1.65 0 1235.43 -1.65 0 1193.24 -1.65 0 1153.66 -1.65 0 1113.63 -1.65 0 1077.87 -1.65 0 1039.21 -1.65 0 1005.88 -1.65 0 964.429 -1.65 0 923.536 -1.65 0 886.273 -1.65 0 851.833 -1.65 0 809.967 -1.65 0 775.306 17.2083 0 756.394 1164.48 0 732.966 1146.91 0 706.092 69.119 0 665.207 99.7824 0 642.902 1079.36 0 629.348 126.677 0 594.109 153.107 0 563.231 176.265 0 529.987 201.198 0 494.372 227.91 0 465.967 249.213 0 447.206 263.284 0 406.997 293.441 0 377.6 315.488 0 347.921 337.748 0 315.433 362.114 0 288.276 382.482 0 256.799 406.09 0 224.307 430.459 0 196.689 451.172 0 165.508 474.559 0 136.714 496.154 0 108.321 517.449 0 76.0321 541.666 0 42.9824 566.453 0 18.9106 584.507 0 1.22183 597.574 0</DataArray>
</Points>
<Verts>
 <DataArray type="Int64" Name="connectivity" format="ascii">0 1 2 3 4 5 6 7 8 9 10 11 12 13 14 15 16 17 18 19 20 21 22 23 24 25 26 27 28 29 30 31 32 33 34 35 36 37 38 39 40 41 42 43 44 45 46 47 48 49 50 51 52 53 54 55 56 57 58 59 60 61 62 63 64 65 66 67 68 69 70 71 72 73 74 75 76 77</DataArray>
 <DataArray type="Int64" Name="offsets" format="ascii">78</DataArray>
</Verts>
<Lines>
 <DataArray type="Int64" Name="connectivity" format="ascii"/>
 <DataArray type="Int64" Name="offsets" format="ascii"/>
</Lines>
<Stripes>
 <DataArray type="Int64" Name="connectivity" format="ascii"/>
 <DataArray type="Int64" Name="offsets" format="ascii"/>
</Stripes>
<Polys>
 <DataArray type="Int64" Name="connectivity" format="ascii"/>
 <DataArray type="Int64" Name="offsets" format="ascii"/>
</Polys>
</Piece>
</PolyData>
</VTKFile>