<?xml version="1.0" encoding="UTF-8" ?>
<VTKFile type="PolyData" version="0.1" order="LittleEndian">
<PolyData>
 <Piece NumberOfPoints="15" NumberOfVerts="1" NumberOfLines="0" NumberOfStrips="0" NumberOfPolys="0">
<PointData>
 <DataArray type="Float64" Name="speed" format="ascii">0.935067 12.2739 12.9801 13.3712 12.5704 12.6824 12.4894 12.7126 12.5024 13.0416 12.7612 12.1244 12.7283 12.2617 12.2979</DataArray>
</PointData>
<CellData/>
<Points>
 <DataArray type="Float64" Name="Points" NumberOfComponents="3" format="ascii">2397.76 600.364 0 2390.96 590.411 0 2356.43 564.514 0 2340.34 643.432 0 2311.81 664.833 0 2284.7 510.717 0 2256.56 489.611 0 2225.01 729.932 0 2190.62 755.726 0 2174.64 428.175 0 2146.26 406.888 0 2127.87 802.784 0 2102.67 374.198 0 2076.45 354.534 0 2049.02 861.92 0</DataArray>
</Points>
<Verts>
 <DataArray type="Int64" Name="connectivity" format="ascii">0 1 2 3 4 5 6 7 8 9 10 11 12 13 14</DataArray>
 <DataArray type="Int64" Name="offsets" format="ascii">15</DataArray>
</Verts>
<Lines>
 <DataArray type="Int64" Name="connectivity" format="ascii"/>
 <DataArray type="Int64" Name="offsets" format="ascii"/>
</Lines>
<Stripes>
 <DataArray type="Int64" Name="connectivity" format="ascii"/>
 <DataArray type="Int64" Name="offsets" format="ascii"/>
</Stripes>
<Polys>
 <DataArray type="Int64" Name="connectivity" format="ascii"/>
 <DataArray type="Int64" Name="offsets" format="ascii"/>
</Polys>
</Piece>
</PolyData>
</VTKFile>