<?xml version="1.0" encoding="UTF-8" ?>
<VTKFile type="PolyData" version="0.1" order="LittleEndian">
<PolyData>
 <Piece NumberOfPoints="69" NumberOfVerts="1" NumberOfLines="0" NumberOfStrips="0" NumberOfPolys="0">
<PointData>
 <DataArray type="Float64" Name="speed" format="ascii">12.1127 13.194 12.9282 13.3634 12.4023 12.7725 13.0043 12.626 12.1425 12.2381 12.4756 12.3742 12.7962 12.7396 12.5046 12.3252 13.2285 13.3229 12.6195 12.3913 13.2922 13.1963 13.0533 12.399 13.2034 12.1939 13.2563 13.2277 12.8129 13.1126 13.0734 12.137 12.4395 12.4177 12.9894 13.1201 13.1706 12.4454 13.1154 13.2081 12.2389 13.3594 12.1623 12.9232 13.0455 12.4915 13.2086 12.2055 12.5391 13.3967 12.4266 12.7193 12.7436 13.1708 12.7128 12.4836 12.914 13.0221 12.6332 12.764 12.6373 12.5138 12.296 13.4067 13.3722 12.204 12.7169 12.2116 13.0483</DataArray>
</PointData>
<CellData/>
<Points>
 <DataArray type="Float64" Name="Points" NumberOfComponents="3" format="ascii">2398.75 596.206 0 2383.55 611.025 0 2348.63 637.217 0 2310.21 529.85 0 2279.29 506.659 0 2268.66 697.191 0 2237.17 720.809 0 2219.26 461.638 0 2177.55 430.355 0 2170.78 770.605 0 2132.16 799.569 0 2118.45 386.03 0 2076.85 354.831 0 2057.61 855.477 0 2025.28 879.726 0 2001.14 298.049 0 1961.32 268.184 0 1940.29 252.412 0 1917.54 960.531 0 1883.42 986.121 0 1863.45 194.783 0 1842.76 1016.62 0 1811.07 155.498 0 1780.43 132.516 0 1751.52 110.832 0 1716.5 84.5686 0 1688.89 1132.02 0 1668.49 48.5632 0 1630.31 19.9241 0 1606.23 1.87319 0 1565.41 -1.65 0 1526.95 -1.65 0 1479.35 -1.65 0 1439.11 -1.65 0 1404.76 -1.65 0 1352.28 -1.65 0 1323.14 1198.35 0 1284.63 1198.35 0 1266.26 -1.65 0 1215.38 -1.65 0 1173.33 1198.35 0 1137.18 1198.35 0 1100.84 -1.65 0 1066.1 -1.65 0 1026.23 1198.35 0 991.404 -1.65 0 960.883 -1.65 0 920.438 -1.65 0 884.416 -1.65 0 839.068 -1.65 0 810.012 -1.65 0 778.742 14.6308 0 743.544 41.0294 0 726.401 1141.99 0 697.682 1120.45 0 673.921 93.2475 0 641.601 117.488 0 616.736 1059.74 0 583.805 1035.04 0 560.649 178.202 0 537.546 195.529 0 500.391 972.479 0 471.202 950.588 0 452.564 259.266 0 421.198 282.79 0 405.567 901.361 0 381.894 312.268 0 354.145 333.08 0 325.416 841.248 0</DataArray>
</Points>
<Verts>
 <DataArray type="Int64" Name="connectivity" format="ascii">0 1 2 3 4 5 6 7 8 9 10 11 12 13 14 15 16 17 18 19 20 21 22 23 24 25 26 27 28 29 30 31 32 33 34 35 36 37 38 39 40 41 42 43 44 45 46 47 48 49 50 51 52 53 54 55 56 57 58 59 60 61 62 63 64 65 66 67 68</DataArray>
 <DataArray type="Int64" Name="offsets" format="ascii">69</DataArray>
</Verts>
<Lines>
 <DataArray type="Int64" Name="connectivity" format="ascii"/>
 <DataArray type="Int64" Name="offsets" format="ascii"/>
</Lines>
<Stripes>
 <DataArray type="Int64" Name="connectivity" format="ascii"/>
 <DataArray type="Int64" Name="offsets" format="ascii"/>
</Stripes>
<Polys>
 <DataArray type="Int64" Name="connectivity" format="ascii"/>
 <DataArray type="Int64" Name="offsets" format="ascii"/>
</Polys>
</Piece>
</PolyData>
</VTKFile>