<?xml version="1.0" encoding="UTF-8" ?>
<VTKFile type="PolyData" version="0.1" order="LittleEndian">
<PolyData>
 <Piece NumberOfPoints="77" NumberOfVerts="1" NumberOfLines="0" NumberOfStrips="0" NumberOfPolys="0">
<PointData>
 <DataArray type="Float64" Name="speed" format="ascii">12.6534 12.1524 12.4581 12.2463 12.8722 12.3582 12.5038 12.8366 12.1468 13.0578 12.3564 12.723 12.2008 13.2493 12.3323 12.9876 13.0801 11.7594 12.4056 12.4799 12.3552 13.3704 12.9522 12.476 13.1791 12.8808 12.2912 13.4006 12.8435 12.8211 12.2544 12.8867 13.3726 12.422 12.5012 12.2845 12.9638 12.9272 12.3863 13.1009 12.2354 12.7633 12.2884 12.2143 12.9734 12.416 12.2184 12.7136 12.8894 13.062 13.0309 13.0755 12.6154 12.8256 12.5147 12.256 12.6801 12.7186 12.3049 12.1983 13.3334 12.913 12.9336 12.8565 12.7694 12.5039 12.7241 13.1635 13.3538 12.1881 13.1743 12.5023 13.1626 13.0648 12.2092 8.95489 4.63604</DataArray>
</PointData>
<CellData/>
<Points>
 <DataArray type="Float64" Name="Points" NumberOfComponents="3" format="ascii">2399.53 596.739 0 2366.02 571.707 0 2341.77 553.519 0 2305.58 526.375 0 2275.2 503.595 0 2253.58 487.38 0 2212.61 456.651 0 2182.24 433.869 0 2163.42 419.76 0 2128.05 393.227 0 2087.26 362.638 0 2064.76 345.763 0 2032.23 321.363 0 2010.27 890.986 0 1972.43 919.367 0 1961.53 268.337 0 1922.25 238.883 0 1903.58 224.875 0 1866.4 998.887 0 1837.29 1020.72 0 1814.88 158.352 0 1791.97 141.174 0 1752.46 1084.35 0 1740.57 102.621 0 1703.8 75.0425 0 1679.21 56.5992 0 1641.96 1167.22 0 1612.82 1189.07 0 1575.19 -1.65 0 1536.15 -1.65 0 1500.89 1198.35 0 1461.78 -1.65 0 1424.05 -1.65 0 1386.84 1198.35 0 1352.96 1198.35 0 1319.39 -1.65 0 1279.9 -1.65 0 1246.38 -1.65 0 1210.25 -1.65 0 1170.23 -1.65 0 1133.52 -1.65 0 1094.75 1198.35 0 1055.87 1198.35 0 1029.59 -1.65 0 991.849 -1.65 0 951.781 -1.65 0 911.936 -1.65 0 870.099 -1.65 0 832.531 -1.65 0 789.234 6.76236 0 766.012 24.1788 0 734.78 1148.27 0 710.384 1129.98 0 670.325 95.9445 0 634.248 123.002 0 618.147 1060.8 0 582.599 1034.14 0 552.036 1011.21 0 524.632 205.214 0 488.532 232.289 0 457.557 255.521 0 427.124 278.346 0 399.023 299.421 0 371.126 320.344 0 332.575 349.257 0 308.204 367.536 0 281.861 387.293 0 245.745 414.38 0 220.701 433.163 0 181.727 462.394 0 152.498 484.316 0 127.595 502.994 0 92.39 529.397 0 59.7167 553.902 0 42.7446 629.244 0 18.3062 610.915 0 5.6422 594.458 0</DataArray>
</Points>
<Verts>
 <DataArray type="Int64" Name="connectivity" format="ascii">0 1 2 3 4 5 6 7 8 9 10 11 12 13 14 15 16 17 18 19 20 21 22 23 24 25 26 27 28 29 30 31 32 33 34 35 36 37 38 39 40 41 42 43 44 45 46 47 48 49 50 51 52 53 54 55 56 57 58 59 60 61 62 63 64 65 66 67 68 69 70 71 72 73 74 75 76</DataArray>
 <DataArray type="Int64" Name="offsets" format="ascii">77</DataArray>
</Verts>
<Lines>
 <DataArray type="Int64" Name="connectivity" format="ascii"/>
 <DataArray type="Int64" Name="offsets" format="ascii"/>
</Lines>
<Stripes>
 <DataArray type="Int64" Name="connectivity" format="ascii"/>
 <DataArray type="Int64" Name="offsets" format="ascii"/>
</Stripes>
<Polys>
 <DataArray type="Int64" Name="connectivity" format="ascii"/>
 <DataArray type="Int64" Name="offsets" format="ascii"/>
</Polys>
</Piece>
</PolyData>
</VTKFile>