<?xml version="1.0" encoding="UTF-8" ?>
<VTKFile type="PolyData" version="0.1" order="LittleEndian">
<PolyData>
 <Piece NumberOfPoints="23" NumberOfVerts="1" NumberOfLines="0" NumberOfStrips="0" NumberOfPolys="0">
<PointData>
 <DataArray type="Float64" Name="speed" format="ascii">0.000751536 12.3924 12.3848 13.2289 12.5964 12.6272 13.2847 13.3594 13.2024 13.1632 12.6444 12.4768 12.2724 13.3728 12.3998 13.2445 13.1815 13.023 12.6027 12.5565 12.5941 12.4758 12.5503</DataArray>
</PointData>
<CellData/>
<Points>
 <DataArray type="Float64" Name="Points" NumberOfComponents="3" format="ascii">2398.01 600.181 0 2396.02 594.211 0 2367.07 572.497 0 2325.88 541.603 0 2303.81 525.048 0 2277.49 505.309 0 2241.14 478.045 0 2226.12 729.097 0 2199.05 749.399 0 2166.87 422.346 0 2131.86 396.085 0 2116.22 811.519 0 2085.69 834.422 0 2060.57 342.621 0 2033.03 321.966 0 1999.34 899.182 0 1966.79 923.596 0 1948.82 258.809 0 1923.02 239.458 0 1903.74 970.882 0 1877.94 205.647 0 1851.61 185.903 0 1825.08 1029.88 0</DataArray>
</Points>
<Verts>
 <DataArray type="Int64" Name="connectivity" format="ascii">0 1 2 3 4 5 6 7 8 9 10 11 12 13 14 15 16 17 18 19 20 21 22</DataArray>
 <DataArray type="Int64" Name="offsets" format="ascii">23</DataArray>
</Verts>
<Lines>
 <DataArray type="Int64" Name="connectivity" format="ascii"/>
 <DataArray type="Int64" Name="offsets" format="ascii"/>
</Lines>
<Stripes>
 <DataArray type="Int64" Name="connectivity" format="ascii"/>
 <DataArray type="Int64" Name="offsets" format="ascii"/>
</Stripes>
<Polys>
 <DataArray type="Int64" Name="connectivity" format="ascii"/>
 <DataArray type="Int64" Name="offsets" format="ascii"/>
</Polys>
</Piece>
</PolyData>
</VTKFile>