<?xml version="1.0" encoding="UTF-8" ?>
<VTKFile type="PolyData" version="0.1" order="LittleEndian">
<PolyData>
 <Piece NumberOfPoints="78" NumberOfVerts="1" NumberOfLines="0" NumberOfStrips="0" NumberOfPolys="0">
<PointData>
 <DataArray type="Float64" Name="speed" format="ascii">8.6085e-005 4.83638 12.9428 12.1635 12.584 13.2202 12.2622 13.3388 13.2217 12.1271 13.3354 12.9052 12.7504 12.4264 12.2581 12.9297 13.3609 12.7374 12.7536 13.2356 12.7799 13.0088 12.3856 12.1337 12.5259 12.1193 13.1956 12.1549 12.4134 12.1202 12.9684 12.4176 13.0111 12.9546 12.1443 13.35 12.9606 12.5753 13.1194 13.2534 12.5279 12.9266 12.4038 12.8162 12.3088 13.0363 12.5816 12.3909 12.6634 12.2076 12.3103 12.6371 12.3011 12.9552 13.2665 12.8417 13.22 13.4016 12.6647 12.642 13.1615 13.147 12.3329 12.7173 12.6167 12.5371 12.9949 12.7595 12.184 12.8948 12.4305 12.706 12.3597 13.1763 13.1283 11.7016 7.85837 2.51672</DataArray>
</PointData>
<CellData/>
<Points>
 <DataArray type="Float64" Name="Points" NumberOfComponents="3" format="ascii">2398.01 600.181 0 2391.24 605.256 0 2379.15 581.554 0 2351 560.446 0 2313.14 532.049 0 2284.43 510.516 0 2244.59 480.634 0 2216.12 459.282 0 2192.75 441.756 0 2159.82 417.055 0 2134.67 398.194 0 2105.97 376.668 0 2074.63 353.168 0 2041.34 328.198 0 2010.74 305.249 0 1980.46 282.535 0 1953.19 262.088 0 1915.92 234.13 0 1889.67 214.443 0 1864.1 195.267 0 1825.3 166.169 0 1793.4 142.245 0 1773.89 127.609 0 1738.03 100.718 0 1699.94 72.1483 0 1676.15 54.3054 0 1642.18 28.8283 0 1623.76 1180.87 0 1582.65 1198.35 0 1564.29 -1.65 0 1518.31 -1.65 0 1495.09 -1.65 0 1447.21 1198.35 0 1415.19 1198.35 0 1383.86 -1.65 0 1354.18 -1.65 0 1303.61 1198.35 0 1291.64 -1.65 0 1245.44 -1.65 0 1206.37 -1.65 0 1164.44 1198.35 0 1127.42 1198.35 0 1091.77 -1.65 0 1054.91 -1.65 0 1016.5 1198.35 0 979 -1.65 0 936.555 -1.65 0 901.787 1198.35 0 867.844 1198.35 0 835.133 -1.65 0 797 0.420802 0 770.675 20.6814 0 740.982 42.9509 0 707.63 67.9652 0 678.271 89.9843 0 647.588 1082.88 0 617.699 1060.46 0 595.864 151.79 0 567.798 172.84 0 531.056 200.396 0 501.058 222.895 0 467.996 247.692 0 434.004 273.186 0 405.69 294.421 0 377.545 315.53 0 347.246 857.621 0 321.5 838.311 0 282.173 387.06 0 245.971 414.211 0 231.39 770.728 0 196.1 744.26 0 164.605 720.639 0 136.91 496.007 0 101.502 522.563 0 69.7848 546.351 0 37.5552 570.524 0 15.6375 586.962 0 2.1694 596.918 0</DataArray>
</Points>
<Verts>
 <DataArray type="Int64" Name="connectivity" format="ascii">0 1 2 3 4 5 6 7 8 9 10 11 12 13 14 15 16 17 18 19 20 21 22 23 24 25 26 27 28 29 30 31 32 33 34 35 36 37 38 39 40 41 42 43 44 45 46 47 48 49 50 51 52 53 54 55 56 57 58 59 60 61 62 63 64 65 66 67 68 69 70 71 72 73 74 75 76 77</DataArray>
 <DataArray type="Int64" Name="offsets" format="ascii">78</DataArray>
</Verts>
<Lines>
 <DataArray type="Int64" Name="connectivity" format="ascii"/>
 <DataArray type="Int64" Name="offsets" format="ascii"/>
</Lines>
<Stripes>
 <DataArray type="Int64" Name="connectivity" format="ascii"/>
 <DataArray type="Int64" Name="offsets" format="ascii"/>
</Stripes>
<Polys>
 <DataArray type="Int64" Name="connectivity" format="ascii"/>
 <DataArray type="Int64" Name="offsets" format="ascii"/>
</Polys>
</Piece>
</PolyData>
</VTKFile>