<?xml version="1.0" encoding="UTF-8" ?>
<VTKFile type="PolyData" version="0.1" order="LittleEndian">
<PolyData>
 <Piece NumberOfPoints="17" NumberOfVerts="1" NumberOfLines="0" NumberOfStrips="0" NumberOfPolys="0">
<PointData>
 <DataArray type="Float64" Name="speed" format="ascii">12.3174 12.9685 13.4087 12.563 13.212 12.872 12.5591 12.9253 12.8738 12.7745 12.286 13.0201 12.3909 12.2095 12.7595 12.6889 13</DataArray>
</PointData>
<CellData/>
<Points>
 <DataArray type="Float64" Name="Points" NumberOfComponents="3" format="ascii">2385.28 586.155 0 2367.16 623.317 0 2342.65 641.697 0 2309.05 528.979 0 2274.7 503.217 0 2258.76 704.614 0 2229.87 726.285 0 2203.75 450.002 0 2174.34 427.95 0 2143.58 791.001 0 2109.5 816.561 0 2092.65 366.678 0 2065.26 346.141 0 2045.97 864.211 0 2020.89 312.859 0 1994.94 293.398 0 1968.03 922.665 0</DataArray>
</Points>
<Verts>
 <DataArray type="Int64" Name="connectivity" format="ascii">0 1 2 3 4 5 6 7 8 9 10 11 12 13 14 15 16</DataArray>
 <DataArray type="Int64" Name="offsets" format="ascii">17</DataArray>
</Verts>
<Lines>
 <DataArray type="Int64" Name="connectivity" format="ascii"/>
 <DataArray type="Int64" Name="offsets" format="ascii"/>
</Lines>
<Stripes>
 <DataArray type="Int64" Name="connectivity" format="ascii"/>
 <DataArray type="Int64" Name="offsets" format="ascii"/>
</Stripes>
<Polys>
 <DataArray type="Int64" Name="connectivity" format="ascii"/>
 <DataArray type="Int64" Name="offsets" format="ascii"/>
</Polys>
</Piece>
</PolyData>
</VTKFile>