<?xml version="1.0" encoding="UTF-8" ?>
<VTKFile type="PolyData" version="0.1" order="LittleEndian">
<PolyData>
 <Piece NumberOfPoints="63" NumberOfVerts="1" NumberOfLines="0" NumberOfStrips="0" NumberOfPolys="0">
<PointData>
 <DataArray type="Float64" Name="speed" format="ascii">3.81005 12.9575 12.7218 12.8513 13.1575 12.1792 12.8721 12.7268 12.7604 12.8445 13.226 13.3947 12.209 13.1463 13.1016 12.6801 13.1132 12.6718 12.2566 13.2685 13.0451 12.1524 12.2437 12.6466 13.3212 13.3084 12.3985 13.2483 12.544 12.5599 13.4083 13.3561 12.5052 12.1423 12.3109 13.2969 12.5578 12.682 12.2263 12.6868 12.9004 12.3661 12.9916 12.5357 12.831 13.0284 12.2253 12.6359 12.7046 13.3911 12.1764 12.5774 13.0174 12.3453 13.0998 12.5149 12.9027 13.3596 13.2349 12.367 12.4734 12.2648 12.9255</DataArray>
</PointData>
<CellData/>
<Points>
 <DataArray type="Float64" Name="Points" NumberOfComponents="3" format="ascii">2397.27 600.738 0 2391.51 590.822 0 2350.96 560.411 0 2344.4 640.387 0 2304.12 670.599 0 2293.35 517.208 0 2250.17 484.821 0 2233.04 723.908 0 2197.34 750.686 0 2175.44 428.772 0 2137.11 400.027 0 2113.47 382.292 0 2090.8 830.587 0 2058.14 855.081 0 2037.24 325.121 0 2015.03 887.411 0 1985.56 286.36 0 1952.94 261.899 0 1925.88 241.606 0 1891.41 215.754 0 1862.71 1001.65 0 1840.8 177.794 0 1804.95 150.902 0 1781.22 133.111 0 1746.67 107.192 0 1716.55 84.6021 0 1675.17 53.5734 0 1646.44 32.0235 0 1617.05 9.97891 0 1569.54 -1.65 0 1542.73 1198.35 0 1500.05 1198.35 0 1483.66 -1.65 0 1432.77 -1.65 0 1392.17 1198.35 0 1356.23 1198.35 0 1315.91 -1.65 0 1284.57 -1.65 0 1241.38 1198.35 0 1208.37 -1.65 0 1176.14 -1.65 0 1136.51 -1.65 0 1102.17 -1.65 0 1054.81 -1.65 0 1028.3 -1.65 0 991.188 -1.65 0 945.896 -1.65 0 923.271 1198.35 0 890.748 1198.35 0 861.889 -1.65 0 818.286 -1.65 0 791.456 1190.78 0 760.285 1167.4 0 734.148 48.0769 0 712.123 64.5957 0 674.57 1103.11 0 644.384 1080.47 0 627.307 128.208 0 594.901 152.513 0 577.85 1030.57 0 555.706 181.909 0 526.812 203.579 0 499.294 971.657 0</DataArray>
</Points>
<Verts>
 <DataArray type="Int64" Name="connectivity" format="ascii">0 1 2 3 4 5 6 7 8 9 10 11 12 13 14 15 16 17 18 19 20 21 22 23 24 25 26 27 28 29 30 31 32 33 34 35 36 37 38 39 40 41 42 43 44 45 46 47 48 49 50 51 52 53 54 55 56 57 58 59 60 61 62</DataArray>
 <DataArray type="Int64" Name="offsets" format="ascii">63</DataArray>
</Verts>
<Lines>
 <DataArray type="Int64" Name="connectivity" format="ascii"/>
 <DataArray type="Int64" Name="offsets" format="ascii"/>
</Lines>
<Stripes>
 <DataArray type="Int64" Name="connectivity" format="ascii"/>
 <DataArray type="Int64" Name="offsets" format="ascii"/>
</Stripes>
<Polys>
 <DataArray type="Int64" Name="connectivity" format="ascii"/>
 <DataArray type="Int64" Name="offsets" format="ascii"/>
</Polys>
</Piece>
</PolyData>
</VTKFile>