<?xml version="1.0" encoding="UTF-8" ?>
<VTKFile type="PolyData" version="0.1" order="LittleEndian">
<PolyData>
 <Piece NumberOfPoints="38" NumberOfVerts="1" NumberOfLines="0" NumberOfStrips="0" NumberOfPolys="0">
<PointData>
 <DataArray type="Float64" Name="speed" format="ascii">13.3254 12.8329 13.208 12.9006 12.9314 12.7574 12.5277 12.3706 13.278 12.2857 12.8526 12.7992 12.9638 13.2339 12.6777 12.7477 13.0184 13.4046 12.3878 13.0776 12.1287 12.1206 12.8157 13.0867 12.2344 12.2199 13.1903 13.2197 12.472 12.2841 12.6878 12.2582 12.3496 13.0999 12.6495 13.3019 12.7148 12.4496</DataArray>
</PointData>
<CellData/>
<Points>
 <DataArray type="Float64" Name="Points" NumberOfComponents="3" format="ascii">2399.4 596.648 0 2359.96 567.159 0 2328.41 543.502 0 2302.99 524.438 0 2261.12 493.031 0 2239.26 719.246 0 2203.13 746.343 0 2189.72 439.479 0 2152.56 411.611 0 2124.43 805.365 0 2091.48 830.077 0 2058.69 341.211 0 2033.77 322.52 0 1998.13 900.087 0 1970.32 274.933 0 1942.48 254.053 0 1916.89 234.862 0 1887.12 212.534 0 1846.63 182.162 0 1825.1 166.014 0 1796.82 144.805 0 1763.65 119.928 0 1743.9 1090.76 0 1716.08 1111.63 0 1688.07 63.248 0 1656.5 39.5673 0 1640.69 1168.17 0 1609.13 1191.84 0 1572.53 -1.65 0 1544 -1.65 0 1497.78 1198.35 0 1461.71 1198.35 0 1436.04 -1.65 0 1401.76 -1.65 0 1379.55 1198.35 0 1350.64 -1.65 0 1313.46 -1.65 0 1283.22 1198.35 0</DataArray>
</Points>
<Verts>
 <DataArray type="Int64" Name="connectivity" format="ascii">0 1 2 3 4 5 6 7 8 9 10 11 12 13 14 15 16 17 18 19 20 21 22 23 24 25 26 27 28 29 30 31 32 33 34 35 36 37</DataArray>
 <DataArray type="Int64" Name="offsets" format="ascii">38</DataArray>
</Verts>
<Lines>
 <DataArray type="Int64" Name="connectivity" format="ascii"/>
 <DataArray type="Int64" Name="offsets" format="ascii"/>
</Lines>
<Stripes>
 <DataArray type="Int64" Name="connectivity" format="ascii"/>
 <DataArray type="Int64" Name="offsets" format="ascii"/>
</Stripes>
<Polys>
 <DataArray type="Int64" Name="connectivity" format="ascii"/>
 <DataArray type="Int64" Name="offsets" format="ascii"/>
</Polys>
</Piece>
</PolyData>
</VTKFile>