<?xml version="1.0" encoding="UTF-8" ?>
<VTKFile type="PolyData" version="0.1" order="LittleEndian">
<PolyData>
 <Piece NumberOfPoints="42" NumberOfVerts="1" NumberOfLines="0" NumberOfStrips="0" NumberOfPolys="0">
<PointData>
 <DataArray type="Float64" Name="speed" format="ascii">0.00227405 12.8337 12.436 12.5607 13.4001 13.1376 13.1834 12.8244 12.5099 12.8408 12.4015 12.7666 12.5405 12.9896 12.363 12.323 13.1349 12.6008 12.2069 12.85 12.6391 12.2132 13.2228 12.2548 12.8667 12.8876 13.0354 12.6561 12.653 12.9941 12.7904 13.0011 13.2756 13.3733 12.7302 13.2482 12.4321 12.4779 13.3224 12.112 13.4021 13.1204</DataArray>
</PointData>
<CellData/>
<Points>
 <DataArray type="Float64" Name="Points" NumberOfComponents="3" format="ascii">2398.01 600.181 0 2385.34 586.2 0 2364.21 570.353 0 2325.52 541.33 0 2296.34 519.45 0 2257.47 490.293 0 2225.68 466.454 0 2200.07 447.247 0 2157.67 415.448 0 2137.59 795.492 0 2102.31 821.952 0 2085.65 361.429 0 2048.89 333.858 0 2020.73 883.143 0 1988.2 907.537 0 1956.89 264.859 0 1930.48 245.056 0 1895.1 977.366 0 1866.88 197.355 0 1839.73 176.992 0 1813.48 157.303 0 1783.8 135.044 0 1745.84 106.572 0 1722.37 88.9665 0 1693.45 67.2834 0 1660.91 42.8756 0 1643.73 1165.89 0 1614.27 1187.99 0 1583.09 -1.65 0 1542.33 -1.65 0 1521.95 1198.35 0 1481.48 1198.35 0 1445.4 -1.65 0 1419.55 -1.65 0 1369.2 1198.35 0 1334.16 1198.35 0 1308.61 -1.65 0 1274.98 -1.65 0 1251.94 1198.35 0 1222.39 -1.65 0 1185.59 -1.65 0 1156 1198.35 0</DataArray>
</Points>
<Verts>
 <DataArray type="Int64" Name="connectivity" format="ascii">0 1 2 3 4 5 6 7 8 9 10 11 12 13 14 15 16 17 18 19 20 21 22 23 24 25 26 27 28 29 30 31 32 33 34 35 36 37 38 39 40 41</DataArray>
 <DataArray type="Int64" Name="offsets" format="ascii">42</DataArray>
</Verts>
<Lines>
 <DataArray type="Int64" Name="connectivity" format="ascii"/>
 <DataArray type="Int64" Name="offsets" format="ascii"/>
</Lines>
<Stripes>
 <DataArray type="Int64" Name="connectivity" format="ascii"/>
 <DataArray type="Int64" Name="offsets" format="ascii"/>
</Stripes>
<Polys>
 <DataArray type="Int64" Name="connectivity" format="ascii"/>
 <DataArray type="Int64" Name="offsets" format="ascii"/>
</Polys>
</Piece>
</PolyData>
</VTKFile>