<?xml version="1.0" encoding="UTF-8" ?>
<VTKFile type="PolyData" version="0.1" order="LittleEndian">
<PolyData>
 <Piece NumberOfPoints="39" NumberOfVerts="1" NumberOfLines="0" NumberOfStrips="0" NumberOfPolys="0">
<PointData>
 <DataArray type="Float64" Name="speed" format="ascii">12.8767 13.3445 12.2515 13.1993 12.9006 13.3509 12.7944 12.9767 12.9482 12.1947 12.6492 12.8211 12.1983 13.0217 12.7535 13.1885 12.2276 12.8904 12.7688 12.8135 13.1388 12.2088 12.5687 12.7893 12.6739 12.9705 12.2368 12.4115 12.8452 12.7995 12.3886 7.91702 3.68743 13.286 13.1141 12.9069 12.6792 13.0924 12.4484</DataArray>
</PointData>
<CellData/>
<Points>
 <DataArray type="Float64" Name="Points" NumberOfComponents="3" format="ascii">1095.82 1198.35 0 1049.94 1198.35 0 761.203 27.7855 0 739.731 1151.99 0 702.722 1124.23 0 691.133 80.338 0 649.878 1084.6 0 622.715 1064.22 0 592.365 154.414 0 564.55 1020.6 0 531.19 995.579 0 514.525 212.794 0 1028.26 -1.65 0 483.906 960.116 0 446.245 931.87 0 432.069 274.637 0 397.992 895.68 0 370.64 875.166 0 349.014 336.929 0 326.122 841.778 0 283.026 809.456 0 265.157 399.822 0 236.514 774.571 0 982.507 -1.65 0 210.622 755.152 0 188.339 457.435 0 154.961 482.469 0 125.036 690.962 0 98.4469 671.02 0 64.8433 645.818 0 45.4077 564.634 0 15.6342 586.964 0 4.59421 600.974 0 970.092 1198.35 0 931.844 1198.35 0 895.983 -1.65 0 848.676 1198.35 0 814.098 1198.35 0 791.883 4.77544 0</DataArray>
</Points>
<Verts>
 <DataArray type="Int64" Name="connectivity" format="ascii">0 1 2 3 4 5 6 7 8 9 10 11 12 13 14 15 16 17 18 19 20 21 22 23 24 25 26 27 28 29 30 31 32 33 34 35 36 37 38</DataArray>
 <DataArray type="Int64" Name="offsets" format="ascii">39</DataArray>
</Verts>
<Lines>
 <DataArray type="Int64" Name="connectivity" format="ascii"/>
 <DataArray type="Int64" Name="offsets" format="ascii"/>
</Lines>
<Stripes>
 <DataArray type="Int64" Name="connectivity" format="ascii"/>
 <DataArray type="Int64" Name="offsets" format="ascii"/>
</Stripes>
<Polys>
 <DataArray type="Int64" Name="connectivity" format="ascii"/>
 <DataArray type="Int64" Name="offsets" format="ascii"/>
</Polys>
</Piece>
</PolyData>
</VTKFile>