<?xml version="1.0" encoding="UTF-8" ?>
<VTKFile type="PolyData" version="0.1" order="LittleEndian">
<PolyData>
 <Piece NumberOfPoints="79" NumberOfVerts="1" NumberOfLines="0" NumberOfStrips="0" NumberOfPolys="0">
<PointData>
 <DataArray type="Float64" Name="speed" format="ascii">12.4254 12.4259 12.9632 13.2469 12.1313 12.4175 12.5522 13.1008 12.4125 12.8765 13.3684 12.2516 11.9181 12.1355 12.653 13.1936 13.2386 12.7064 13.004 12.3434 12.1903 12.4735 12.665 13.1097 12.2788 12.4772 12.8767 13.0109 12.7065 12.7551 12.3926 12.183 12.7301 12.5012 12.2979 12.3309 13.1902 12.8054 13.272 12.1169 12.5876 12.7739 12.3811 12.5578 12.3125 12.7369 12.479 13.1534 12.9554 12.1932 13.0224 13.2572 13.3456 13.0047 13.2783 12.9192 12.9229 12.7514 12.3001 12.4694 12.1439 12.8267 12.8576 13.0606 12.286 12.8445 12.5564 13.3955 12.6075 13.309 12.6242 12.3976 12.9741 12.4014 13.2167 12.182 9.97235 6.75739 0</DataArray>
</PointData>
<CellData/>
<Points>
 <DataArray type="Float64" Name="Points" NumberOfComponents="3" format="ascii">2366.9 572.371 0 2328.11 543.275 0 2301.61 523.399 0 2265.77 496.52 0 2237.17 475.07 0 2201.52 448.33 0 2175.63 428.911 0 2133.55 397.357 0 2111.01 380.45 0 2093.41 828.63 0 2064.93 849.988 0 2031.85 321.08 0 2014.04 307.722 0 1982.74 284.248 0 1943.91 940.753 0 1921.03 957.913 0 1901.97 223.673 0 1867.03 197.464 0 1831.92 171.136 0 1803.47 149.792 0 1771.56 1070.01 0 1758.02 115.71 0 1731.38 95.7267 0 1700.53 1123.29 0 1660.58 1153.26 0 1643.28 29.6544 0 1608.23 3.3666 0 1573.8 -1.65 0 1561.8 1198.35 0 1510.46 1198.35 0 1472.53 -1.65 0 1435.15 -1.65 0 1399.64 1198.35 0 1355.51 1198.35 0 1338.78 -1.65 0 1284.87 -1.65 0 1261.2 -1.65 0 1218.92 -1.65 0 1181.46 -1.65 0 1140.56 -1.65 0 1099.83 -1.65 0 1067.98 -1.65 0 1037.7 1198.35 0 1003.71 1198.35 0 963.411 -1.65 0 938.09 1198.35 0 894.712 1198.35 0 862.255 -1.65 0 823.447 -1.65 0 792.682 1191.7 0 769.933 21.238 0 734.396 47.8907 0 706.461 68.842 0 676.412 91.3786 0 641.454 117.598 0 615.181 137.302 0 584.968 159.962 0 551.933 184.738 0 523.208 206.282 0 489.183 231.801 0 456.844 256.055 0 428.567 277.264 0 400.273 298.484 0 377.757 880.504 0 349.292 859.155 0 329.835 351.313 0 299.742 373.883 0 276.615 804.647 0 246.511 782.069 0 218.096 435.117 0 191.163 455.317 0 164.866 720.835 0 139.851 702.074 0 112.092 514.621 0 86.8985 533.516 0 58.6943 641.206 0 27.0048 617.439 0 10.8007 590.589 0 0.1 598.35 0</DataArray>
</Points>
<Verts>
 <DataArray type="Int64" Name="connectivity" format="ascii">0 1 2 3 4 5 6 7 8 9 10 11 12 13 14 15 16 17 18 19 20 21 22 23 24 25 26 27 28 29 30 31 32 33 34 35 36 37 38 39 40 41 42 43 44 45 46 47 48 49 50 51 52 53 54 55 56 57 58 59 60 61 62 63 64 65 66 67 68 69 70 71 72 73 74 75 76 77 78</DataArray>
 <DataArray type="Int64" Name="offsets" format="ascii">79</DataArray>
</Verts>
<Lines>
 <DataArray type="Int64" Name="connectivity" format="ascii"/>
 <DataArray type="Int64" Name="offsets" format="ascii"/>
</Lines>
<Stripes>
 <DataArray type="Int64" Name="connectivity" format="ascii"/>
 <DataArray type="Int64" Name="offsets" format="ascii"/>
</Stripes>
<Polys>
 <DataArray type="Int64" Name="connectivity" format="ascii"/>
 <DataArray type="Int64" Name="offsets" format="ascii"/>
</Polys>
</Piece>
</PolyData>
</VTKFile>