<?xml version="1.0" encoding="UTF-8" ?>
<VTKFile type="PolyData" version="0.1" order="LittleEndian">
<PolyData>
 <Piece NumberOfPoints="77" NumberOfVerts="1" NumberOfLines="0" NumberOfStrips="0" NumberOfPolys="0">
<PointData>
 <DataArray type="Float64" Name="speed" format="ascii">1.1929e-006 12.2143 12.6789 12.8853 12.8434 13.3877 12.8853 13.3003 12.6371 12.184 12.8695 13.2056 12.2597 13.0563 12.2379 12.2461 12.9764 13.0181 12.2316 13.1155 13.1732 13.0243 13.1336 12.7345 12.2163 13.036 13.352 13.096 13.407 12.7513 13.2412 12.9544 13.1033 13.1672 13.3483 12.7889 12.4055 13.1798 13.1821 12.4756 12.515 13.2736 12.403 12.3058 12.9239 12.7196 12.965 12.4714 12.5666 12.3017 12.2643 13.1333 12.5205 13.1334 13.2522 12.6995 12.5302 12.3797 13.039 12.6816 12.7097 13.1127 13.0375 13.3232 13.2018 13.2205 13.2669 12.882 12.8025 13.1355 12.2852 12.3189 13.1298 12.3764 12.9038 8.91944 4.49292</DataArray>
</PointData>
<CellData/>
<Points>
 <DataArray type="Float64" Name="Points" NumberOfComponents="3" format="ascii">2398.01 600.181 0 2379.66 581.94 0 2357.18 565.08 0 2324.9 540.87 0 2299.58 521.876 0 2270.03 499.718 0 2237.9 475.617 0 2204.18 450.331 0 2174.57 428.12 0 2142.67 404.196 0 2115.74 384.001 0 2078.96 356.411 0 2051.04 335.476 0 2027.97 318.169 0 1986.18 286.829 0 1956.71 264.727 0 1936.91 249.873 0 1903.2 224.595 0 1862.69 194.21 0 1838.78 176.278 0 1806.6 152.144 0 1786.9 1058.52 0 1749.81 1086.33 0 1735.37 98.7233 0 1698.52 71.0834 0 1678.65 56.181 0 1642.48 1166.83 0 1615.33 1187.19 0 1588.09 -1.65 0 1558.26 -1.65 0 1507.4 1198.35 0 1494.56 -1.65 0 1449.01 -1.65 0 1414.84 -1.65 0 1370.61 1198.35 0 1334.77 1198.35 0 1295.07 -1.65 0 1259.23 -1.65 0 1220.56 1198.35 0 1181.85 -1.65 0 1138.62 -1.65 0 1106.52 1198.35 0 1073.47 1198.35 0 1041.37 -1.65 0 1001.34 -1.65 0 968.048 -1.65 0 929.981 -1.65 0 888.328 -1.65 0 852.489 -1.65 0 813.656 1198.35 0 781.427 1183.26 0 759.732 28.8887 0 729.975 51.2064 0 695.298 77.2144 0 665.458 99.5944 0 631.246 125.254 0 598.698 149.664 0 568.03 172.666 0 539.869 193.787 0 511.204 980.59 0 484.794 960.782 0 444.957 264.971 0 408.602 292.237 0 394.454 893.027 0 358.469 866.038 0 327.988 843.177 0 299.186 374.3 0 265.5 399.564 0 232.067 424.639 0 201.501 447.564 0 174.401 467.889 0 147.083 488.377 0 110.715 515.654 0 82.6851 536.676 0 55.0409 557.409 0 21.6072 582.485 0 5.74265 594.383 0</DataArray>
</Points>
<Verts>
 <DataArray type="Int64" Name="connectivity" format="ascii">0 1 2 3 4 5 6 7 8 9 10 11 12 13 14 15 16 17 18 19 20 21 22 23 24 25 26 27 28 29 30 31 32 33 34 35 36 37 38 39 40 41 42 43 44 45 46 47 48 49 50 51 52 53 54 55 56 57 58 59 60 61 62 63 64 65 66 67 68 69 70 71 72 73 74 75 76</DataArray>
 <DataArray type="Int64" Name="offsets" format="ascii">77</DataArray>
</Verts>
<Lines>
 <DataArray type="Int64" Name="connectivity" format="ascii"/>
 <DataArray type="Int64" Name="offsets" format="ascii"/>
</Lines>
<Stripes>
 <DataArray type="Int64" Name="connectivity" format="ascii"/>
 <DataArray type="Int64" Name="offsets" format="ascii"/>
</Stripes>
<Polys>
 <DataArray type="Int64" Name="connectivity" format="ascii"/>
 <DataArray type="Int64" Name="offsets" format="ascii"/>
</Polys>
</Piece>
</PolyData>
</VTKFile>