<?xml version="1.0" encoding="UTF-8" ?>
<VTKFile type="PolyData" version="0.1" order="LittleEndian">
<PolyData>
 <Piece NumberOfPoints="80" NumberOfVerts="1" NumberOfLines="0" NumberOfStrips="0" NumberOfPolys="0">
<PointData>
 <DataArray type="Float64" Name="speed" format="ascii">10.9825 12.5581 13.1325 12.3891 13.0684 12.1923 13.1108 12.6721 12.1744 13.3149 13.2449 13.2013 12.442 12.8548 12.2717 12.2199 12.2274 12.1418 12.7402 12.5106 12.2346 12.903 12.2362 12.5778 13.1097 13.0792 13.3228 12.6846 13.3552 13.0899 13.3919 13.3472 12.5952 12.9691 12.3229 12.9276 13.3971 13.3705 12.8173 13.2286 12.2027 12.508 12.8192 13.2498 12.9339 13.2074 12.3832 12.1998 12.3468 12.7461 12.6999 13.068 12.6957 12.609 13.2844 13.3919 13.0927 13.0377 12.285 13.0031 12.6678 12.5592 12.6963 12.2567 12.3981 12.2869 13.3262 12.9867 12.1743 13.2168 13.2621 12.5473 13.0807 12.9757 12.1242 13.331 13.3965 12.7951 12.8043 6.24442</DataArray>
</PointData>
<CellData/>
<Points>
 <DataArray type="Float64" Name="Points" NumberOfComponents="3" format="ascii">2384.2 610.539 0 2361.04 567.975 0 2336.29 549.409 0 2299.41 674.132 0 2274.64 692.709 0 2245.53 481.337 0 2222.59 464.132 0 2204.2 745.536 0 2167.43 773.117 0 2145.78 406.53 0 2115.33 383.688 0 2080.39 357.488 0 2067.79 847.844 0 2029.84 876.309 0 1993.06 291.987 0 1965.04 270.974 0 1953 933.935 0 1919.34 959.183 0 1900.46 222.54 0 1860.02 192.206 0 1855.39 1007.14 0 1817.81 1035.33 0 1804.88 150.85 0 1762.1 118.768 0 1739.21 1094.28 0 1709.11 1116.85 0 1686.61 62.1518 0 1646 31.6892 0 1623.78 15.0251 0 1599.87 1197.89 0 1560.4 1198.35 0 1531.1 -1.65 0 1507.88 1198.35 0 1465.79 -1.65 0 1428.53 -1.65 0 1395.03 -1.65 0 1349.63 -1.65 0 1315.42 1198.35 0 1286.99 -1.65 0 1240.47 -1.65 0 1206.41 -1.65 0 1170.93 -1.65 0 1131.7 -1.65 0 1084.79 -1.65 0 1044.48 -1.65 0 1008.79 -1.65 0 956.232 -1.65 0 926.13 1198.35 0 887.947 1198.35 0 870.783 -1.65 0 821.905 -1.65 0 783.509 1184.82 0 751.42 1160.75 0 725.491 54.5698 0 697.208 75.782 0 666.722 1097.23 0 637.224 120.77 0 611.327 140.193 0 581.903 162.261 0 555.029 182.416 0 513.678 213.43 0 490.864 230.541 0 462.64 251.709 0 429.425 276.62 0 410.8 905.287 0 382.195 883.833 0 360.004 328.686 0 324.546 355.28 0 299.222 821.603 0 268.061 798.231 0 246.759 413.62 0 217.497 435.567 0 184.78 735.77 0 155.508 713.816 0 133.594 498.494 0 104.896 520.018 0 86.6341 662.161 0 64.1168 550.602 0 39.1949 569.294 0 13.7371 607.488 0</DataArray>
</Points>
<Verts>
 <DataArray type="Int64" Name="connectivity" format="ascii">0 1 2 3 4 5 6 7 8 9 10 11 12 13 14 15 16 17 18 19 20 21 22 23 24 25 26 27 28 29 30 31 32 33 34 35 36 37 38 39 40 41 42 43 44 45 46 47 48 49 50 51 52 53 54 55 56 57 58 59 60 61 62 63 64 65 66 67 68 69 70 71 72 73 74 75 76 77 78 79</DataArray>
 <DataArray type="Int64" Name="offsets" format="ascii">80</DataArray>
</Verts>
<Lines>
 <DataArray type="Int64" Name="connectivity" format="ascii"/>
 <DataArray type="Int64" Name="offsets" format="ascii"/>
</Lines>
<Stripes>
 <DataArray type="Int64" Name="connectivity" format="ascii"/>
 <DataArray type="Int64" Name="offsets" format="ascii"/>
</Stripes>
<Polys>
 <DataArray type="Int64" Name="connectivity" format="ascii"/>
 <DataArray type="Int64" Name="offsets" format="ascii"/>
</Polys>
</Piece>
</PolyData>
</VTKFile>