<?xml version="1.0" encoding="UTF-8" ?>
<VTKFile type="PolyData" version="0.1" order="LittleEndian">
<PolyData>
 <Piece NumberOfPoints="78" NumberOfVerts="1" NumberOfLines="0" NumberOfStrips="0" NumberOfPolys="0">
<PointData>
 <DataArray type="Float64" Name="speed" format="ascii">12.1586 13.1346 12.7975 12.5911 12.7371 12.4555 12.7237 13.2896 13.1185 12.7268 13.3984 13.4043 13.2837 12.4332 13.0245 12.2258 12.2696 12.1987 12.6042 13.3303 13.2982 13.1453 12.7065 13.0659 13.3411 13.1967 13.3522 13.234 12.1171 12.2232 13.1499 13.1562 12.6885 12.4028 13.0635 12.9743 12.5749 13.2101 12.1947 13.2096 12.728 12.8611 12.4772 12.5107 12.7859 12.7866 13.0543 12.4703 13.0676 12.5589 13.1685 13.2182 12.1488 13.2671 13.3487 12.3198 13.2495 12.8286 12.2976 13.0154 12.7888 13.2603 12.7901 13.2366 12.9704 12.669 12.5482 12.9656 13.08 12.5212 13.1404 12.4719 12.6187 12.4669 12.7881 12.2708 5.90593 2.19246</DataArray>
</PointData>
<CellData/>
<Points>
 <DataArray type="Float64" Name="Points" NumberOfComponents="3" format="ascii">2385.94 586.651 0 2357.9 565.619 0 2321.63 538.412 0 2303.3 524.67 0 2254.5 488.067 0 2225.6 466.39 0 2188.19 438.337 0 2162.56 419.109 0 2137.8 400.544 0 2105.58 376.376 0 2070.15 349.808 0 2030.65 320.18 0 2005.27 301.142 0 1970 274.693 0 1940.33 252.441 0 1904.42 225.506 0 1881.39 208.238 0 1835.36 173.713 0 1816.84 159.826 0 1799.47 1049.09 0 1768.55 1072.27 0 1737.36 100.21 0 1717.45 85.2777 0 1688.51 63.5776 0 1648.16 1162.57 0 1624.85 1180.05 0 1602.21 -0.683094 0 1563.55 -1.65 0 1518.37 -1.65 0 1486.17 -1.65 0 1445.17 1198.35 0 1426.7 -1.65 0 1397.55 -1.65 0 1355.06 1198.35 0 1304.85 1198.35 0 1286.81 -1.65 0 1240.15 -1.65 0 1206.46 -1.65 0 1191.38 1198.35 0 1137.24 1198.35 0 1104.05 -1.65 0 1063.7 -1.65 0 1032.02 1198.35 0 987.514 1198.35 0 965.936 -1.65 0 912.277 -1.65 0 888.142 -1.65 0 849.867 -1.65 0 814.298 -1.65 0 779.744 13.8794 0 744.18 40.5525 0 718.4 59.8879 0 695.982 1119.17 0 665.627 1096.41 0 637.108 120.857 0 613.277 1057.14 0 577.935 1030.64 0 553.347 183.678 0 521.983 207.201 0 496.137 969.289 0 472.129 244.592 0 439.457 269.096 0 410.616 290.727 0 380.839 313.059 0 346.281 338.978 0 319.301 359.213 0 289.126 381.845 0 257.918 405.251 0 228.15 427.577 0 193.379 453.655 0 160.755 478.123 0 132.63 499.217 0 103.537 521.037 0 81.552 658.349 0 53.2141 637.096 0 34.8838 572.527 0 10.1127 591.105 0 1.99493 599.456 0</DataArray>
</Points>
<Verts>
 <DataArray type="Int64" Name="connectivity" format="ascii">0 1 2 3 4 5 6 7 8 9 10 11 12 13 14 15 16 17 18 19 20 21 22 23 24 25 26 27 28 29 30 31 32 33 34 35 36 37 38 39 40 41 42 43 44 45 46 47 48 49 50 51 52 53 54 55 56 57 58 59 60 61 62 63 64 65 66 67 68 69 70 71 72 73 74 75 76 77</DataArray>
 <DataArray type="Int64" Name="offsets" format="ascii">78</DataArray>
</Verts>
<Lines>
 <DataArray type="Int64" Name="connectivity" format="ascii"/>
 <DataArray type="Int64" Name="offsets" format="ascii"/>
</Lines>
<Stripes>
 <DataArray type="Int64" Name="connectivity" format="ascii"/>
 <DataArray type="Int64" Name="offsets" format="ascii"/>
</Stripes>
<Polys>
 <DataArray type="Int64" Name="connectivity" format="ascii"/>
 <DataArray type="Int64" Name="offsets" format="ascii"/>
</Polys>
</Piece>
</PolyData>
</VTKFile>