<?xml version="1.0" encoding="UTF-8" ?>
<VTKFile type="PolyData" version="0.1" order="LittleEndian">
<PolyData>
 <Piece NumberOfPoints="78" NumberOfVerts="1" NumberOfLines="0" NumberOfStrips="0" NumberOfPolys="0">
<PointData>
 <DataArray type="Float64" Name="speed" format="ascii">11.7607 12.4939 13.0956 12.48 13.0241 12.1887 12.8505 13.0522 12.5488 12.9627 12.1717 12.4974 13.1427 12.196 12.4152 12.6582 12.6064 12.3597 12.8633 12.9865 12.1406 12.9014 13.3251 12.1762 12.5218 13.1638 12.1319 12.9651 12.9896 12.8912 12.2979 13.3282 13.132 12.3748 12.3723 12.6733 12.3291 13.2818 12.236 12.7291 12.6222 12.2608 12.502 12.4457 12.6438 12.5808 12.8878 12.6455 12.4834 12.1479 13.2791 13.2763 13.3135 12.735 12.6432 12.126 12.9629 12.6957 12.9444 13.223 13.0424 12.5242 12.3701 13.3772 12.6733 13.1797 12.4255 12.9628 12.8039 12.3927 12.8006 13.3018 13.0851 12.3755 12.2786 10.6946 5.05207 0</DataArray>
</PointData>
<CellData/>
<Points>
 <DataArray type="Float64" Name="Points" NumberOfComponents="3" format="ascii">2398.85 596.279 0 2367.87 573.095 0 2345.76 556.514 0 2315.87 534.096 0 2286.73 683.642 0 2259.57 704.008 0 2215.12 458.53 0 2178.34 430.946 0 2172.9 769.009 0 2132.29 799.473 0 2107.13 818.339 0 2076.43 354.514 0 2036.32 324.434 0 2000.61 297.65 0 1976.93 279.889 0 1944.55 255.607 0 1920.76 237.765 0 1875.82 204.061 0 1856.91 189.872 0 1834.5 173.069 0 1796.88 144.851 0 1775.42 128.759 0 1733.14 97.0455 0 1700.78 72.7776 0 1678.72 56.2292 0 1643.72 29.9796 0 1612.95 6.90672 0 1593.82 1198.35 0 1562.46 1198.35 0 1541.72 -1.65 0 1492.5 -1.65 0 1457.17 1198.35 0 1410.76 1198.35 0 1380.05 1198.35 0 1354.27 -1.65 0 1307.93 -1.65 0 1281.13 1198.35 0 1246.36 1198.35 0 1212.44 -1.65 0 1183.3 -1.65 0 1142.5 1198.35 0 1096.89 1198.35 0 1070.29 -1.65 0 1029.97 -1.65 0 988.198 -1.65 0 943.714 -1.65 0 916.331 -1.65 0 878.286 -1.65 0 828.424 1198.35 0 802.589 -1.65 0 781.427 12.6176 0 748.974 36.9569 0 715.609 61.9808 0 687.267 83.2376 0 655.674 106.932 0 624.258 130.495 0 598.791 149.595 0 570.181 171.052 0 533.278 198.73 0 503.316 221.202 0 467.274 248.233 0 440.957 267.971 0 412.655 289.197 0 377.805 315.335 0 348.704 337.161 0 322.979 356.454 0 281.282 387.728 0 257.245 405.755 0 231.871 424.786 0 208.459 753.53 0 176.877 466.032 0 146.129 489.093 0 116.957 510.972 0 85.7562 534.373 0 59.1203 554.35 0 26.6773 578.682 0 6.69918 593.666 0 0.1 598.35 0</DataArray>
</Points>
<Verts>
 <DataArray type="Int64" Name="connectivity" format="ascii">0 1 2 3 4 5 6 7 8 9 10 11 12 13 14 15 16 17 18 19 20 21 22 23 24 25 26 27 28 29 30 31 32 33 34 35 36 37 38 39 40 41 42 43 44 45 46 47 48 49 50 51 52 53 54 55 56 57 58 59 60 61 62 63 64 65 66 67 68 69 70 71 72 73 74 75 76 77</DataArray>
 <DataArray type="Int64" Name="offsets" format="ascii">78</DataArray>
</Verts>
<Lines>
 <DataArray type="Int64" Name="connectivity" format="ascii"/>
 <DataArray type="Int64" Name="offsets" format="ascii"/>
</Lines>
<Stripes>
 <DataArray type="Int64" Name="connectivity" format="ascii"/>
 <DataArray type="Int64" Name="offsets" format="ascii"/>
</Stripes>
<Polys>
 <DataArray type="Int64" Name="connectivity" format="ascii"/>
 <DataArray type="Int64" Name="offsets" format="ascii"/>
</Polys>
</Piece>
</PolyData>
</VTKFile>