<?xml version="1.0" encoding="UTF-8" ?>
<VTKFile type="PolyData" version="0.1" order="LittleEndian">
<PolyData>
 <Piece NumberOfPoints="77" NumberOfVerts="1" NumberOfLines="0" NumberOfStrips="0" NumberOfPolys="0">
<PointData>
 <DataArray type="Float64" Name="speed" format="ascii">12.5713 12.3229 12.6338 12.1941 13.2562 12.9238 12.5319 13.033 12.6382 12.2218 13.1563 13.0067 12.2838 12.3853 12.9329 13.3015 13.1764 12.1295 12.6022 13.1468 13.0996 13.1267 12.3776 13.0986 13.1365 12.4679 13.2392 13.1048 12.8666 12.5941 12.271 12.6543 12.2213 12.3506 13.0534 13.2932 12.3296 12.5363 12.8326 13.0633 12.6131 12.7613 12.4252 12.903 12.585 12.6866 13.4015 12.9875 12.2039 12.9936 12.4402 12.889 13.0999 12.8549 13.357 12.3886 13.0545 12.7898 13.3409 13.0261 12.5117 13.0339 13.1777 13.1117 12.8353 12.6172 12.7818 12.9052 12.3246 13.104 13.3632 12.1192 12.9786 13.3829 12.2431 11.9657 3.45848</DataArray>
</PointData>
<CellData/>
<Points>
 <DataArray type="Float64" Name="Points" NumberOfComponents="3" format="ascii">2394.74 593.246 0 2366.83 572.312 0 2346.3 556.915 0 2304.05 525.229 0 2274.19 502.836 0 2255.13 488.538 0 2219.82 462.056 0 2180.18 432.324 0 2155.79 414.035 0 2123.78 390.028 0 2103.3 821.21 0 2063.83 850.818 0 2051.86 336.091 0 2013.9 307.617 0 1996.67 294.693 0 1958.08 930.127 0 1928.38 952.402 0 1904.92 225.885 0 1883.31 209.678 0 1844.96 1014.97 0 1831.61 170.901 0 1797.23 145.112 0 1768.47 123.544 0 1735.19 1097.3 0 1706.37 1118.91 0 1671.71 50.9755 0 1640.91 27.8768 0 1612.67 1189.19 0 1575.62 -1.65 0 1540.18 -1.65 0 1501.35 1198.35 0 1467.93 1198.35 0 1434.53 -1.65 0 1395.77 -1.65 0 1361.97 -1.65 0 1326.83 -1.65 0 1285.15 -1.65 0 1248.75 -1.65 0 1210.1 1198.35 0 1171.36 1198.35 0 1142.21 -1.65 0 1106.05 -1.65 0 1067.49 -1.65 0 1026.73 -1.65 0 984.492 -1.65 0 946.664 -1.65 0 901.695 -1.65 0 872.478 -1.65 0 833.068 1198.35 0 804.401 1198.35 0 762.183 27.0502 0 726.465 53.8386 0 710.948 1130.4 0 674.948 1103.4 0 643.969 1080.16 0 614.977 137.455 0 581.931 162.24 0 549.184 186.8 0 519.769 208.861 0 491.936 229.737 0 463.099 251.364 0 426.186 279.049 0 399.077 299.381 0 375.232 317.265 0 337.441 345.608 0 313.921 363.248 0 273.762 393.368 0 245.229 414.768 0 220.27 433.487 0 184.843 460.057 0 153.031 483.917 0 135.02 698.45 0 110.204 679.838 0 90.1949 531.044 0 52.0478 559.654 0 28.7919 618.779 0 4.34322 600.827 0</DataArray>
</Points>
<Verts>
 <DataArray type="Int64" Name="connectivity" format="ascii">0 1 2 3 4 5 6 7 8 9 10 11 12 13 14 15 16 17 18 19 20 21 22 23 24 25 26 27 28 29 30 31 32 33 34 35 36 37 38 39 40 41 42 43 44 45 46 47 48 49 50 51 52 53 54 55 56 57 58 59 60 61 62 63 64 65 66 67 68 69 70 71 72 73 74 75 76</DataArray>
 <DataArray type="Int64" Name="offsets" format="ascii">77</DataArray>
</Verts>
<Lines>
 <DataArray type="Int64" Name="connectivity" format="ascii"/>
 <DataArray type="Int64" Name="offsets" format="ascii"/>
</Lines>
<Stripes>
 <DataArray type="Int64" Name="connectivity" format="ascii"/>
 <DataArray type="Int64" Name="offsets" format="ascii"/>
</Stripes>
<Polys>
 <DataArray type="Int64" Name="connectivity" format="ascii"/>
 <DataArray type="Int64" Name="offsets" format="ascii"/>
</Polys>
</Piece>
</PolyData>
</VTKFile>