<?xml version="1.0" encoding="UTF-8" ?>
<VTKFile type="PolyData" version="0.1" order="LittleEndian">
<PolyData>
 <Piece NumberOfPoints="81" NumberOfVerts="1" NumberOfLines="0" NumberOfStrips="0" NumberOfPolys="0">
<PointData>
 <DataArray type="Float64" Name="speed" format="ascii">12.9298 12.9384 13.2092 12.7693 12.7068 12.9545 12.9663 12.3893 13.354 13.2619 12.6863 12.4065 12.7504 12.3411 12.501 12.7463 12.1164 13.2878 13.1491 12.883 13.0896 12.6678 12.293 13.2442 12.737 12.5589 12.1697 12.6975 13.0297 12.5655 12.5838 13.0243 12.7604 13.388 12.8201 13.3146 12.9569 12.9036 12.9625 12.5949 13.1839 12.8018 13.3784 12.9373 13.2476 12.2298 12.9821 12.2432 13.0464 13.3552 12.1931 12.4521 12.7722 12.3361 12.6065 12.4328 12.7377 13.2207 12.6185 12.8288 13.1322 12.2377 12.9875 12.7112 12.5337 12.368 12.8323 13.1389 13.3307 13.1399 12.7022 12.5123 13.0634 12.4654 13.01 13.3569 12.7564 13.1995 10.7533 6.67588 0</DataArray>
</PointData>
<CellData/>
<Points>
 <DataArray type="Float64" Name="Points" NumberOfComponents="3" format="ascii">2389.14 589.051 0 2367.88 573.1 0 2336.21 549.351 0 2303.91 525.122 0 2269.21 499.099 0 2243.51 479.824 0 2222.77 731.61 0 2199.27 749.239 0 2178.4 430.992 0 2138.37 400.968 0 2116.88 811.024 0 2092.06 829.646 0 2066.46 347.037 0 2038.13 325.792 0 2004.81 895.077 0 1981.42 912.624 0 1952.67 261.692 0 1927.28 242.649 0 1904.71 970.157 0 1871.87 994.783 0 1848.83 183.813 0 1821.98 163.678 0 1785.74 136.498 0 1772.88 1069.03 0 1736.81 1096.08 0 1698.21 70.8472 0 1670.61 50.1522 0 1655.01 1157.43 0 1625.73 1179.39 0 1604.9 0.918259 0 1561.73 -1.65 0 1547.33 1198.35 0 1500.88 1198.35 0 1485.48 -1.65 0 1434.52 -1.65 0 1400.55 1198.35 0 1363.75 1198.35 0 1340.4 -1.65 0 1287.32 -1.65 0 1256.33 -1.65 0 1228.76 1198.35 0 1190.33 1198.35 0 1164.16 -1.65 0 1131.37 1198.35 0 1097.16 -1.65 0 1061.03 -1.65 0 1022.45 -1.65 0 977.617 -1.65 0 946.613 1198.35 0 913.628 -1.65 0 873.261 -1.65 0 837.881 -1.65 0 800.754 -1.4301 0 766.522 23.7963 0 733.647 48.4524 0 698.098 75.1141 0 670.007 96.1824 0 628.41 127.381 0 606.361 1051.96 0 573.382 1027.22 0 559.966 178.714 0 522.889 206.521 0 485.403 961.238 0 454.112 937.77 0 432.086 274.624 0 399.296 299.217 0 369.027 873.957 0 341.661 342.443 0 316.106 361.609 0 286.393 383.895 0 257.474 405.584 0 219.722 433.898 0 193.951 453.227 0 168.937 471.987 0 132.095 499.618 0 116.277 684.393 0 87.4424 662.767 0 62.7087 551.658 0 29.4334 576.615 0 10.9834 605.423 0 0.1 598.35 0</DataArray>
</Points>
<Verts>
 <DataArray type="Int64" Name="connectivity" format="ascii">0 1 2 3 4 5 6 7 8 9 10 11 12 13 14 15 16 17 18 19 20 21 22 23 24 25 26 27 28 29 30 31 32 33 34 35 36 37 38 39 40 41 42 43 44 45 46 47 48 49 50 51 52 53 54 55 56 57 58 59 60 61 62 63 64 65 66 67 68 69 70 71 72 73 74 75 76 77 78 79 80</DataArray>
 <DataArray type="Int64" Name="offsets" format="ascii">81</DataArray>
</Verts>
<Lines>
 <DataArray type="Int64" Name="connectivity" format="ascii"/>
 <DataArray type="Int64" Name="offsets" format="ascii"/>
</Lines>
<Stripes>
 <DataArray type="Int64" Name="connectivity" format="ascii"/>
 <DataArray type="Int64" Name="offsets" format="ascii"/>
</Stripes>
<Polys>
 <DataArray type="Int64" Name="connectivity" format="ascii"/>
 <DataArray type="Int64" Name="offsets" format="ascii"/>
</Polys>
</Piece>
</PolyData>
</VTKFile>