<?xml version="1.0" encoding="UTF-8" ?>
<VTKFile type="PolyData" version="0.1" order="LittleEndian">
<PolyData>
 <Piece NumberOfPoints="60" NumberOfVerts="1" NumberOfLines="0" NumberOfStrips="0" NumberOfPolys="0">
<PointData>
 <DataArray type="Float64" Name="speed" format="ascii">13.0203 12.9228 12.4335 12.6622 12.7784 12.6035 13.2021 12.6782 13.2815 13.2378 12.2599 12.1658 12.2092 13.3553 12.7246 13.2064 12.5425 12.4986 12.8329 12.9273 12.4644 12.1421 12.7484 13.4011 12.566 12.1424 12.701 12.8834 13.0048 12.9922 12.112 13.0144 12.7787 12.1636 13.0816 13.0903 12.1751 12.5709 12.6199 13.2745 12.7394 12.2806 12.8824 12.3066 12.8631 12.9341 13.3953 13.2145 12.2291 12.8242 12.4693 12.5307 12.9903 12.5459 6.32271 0 13.093 12.3701 13.398 13.1981</DataArray>
</PointData>
<CellData/>
<Points>
 <DataArray type="Float64" Name="Points" NumberOfComponents="3" format="ascii">1760.34 1078.43 0 1721.69 1107.42 0 1453.86 -1.65 0 1427.92 1198.35 0 1377.99 1198.35 0 1361.51 -1.65 0 1318.14 1198.35 0 1277.02 1198.35 0 1238.46 -1.65 0 1207.81 1198.35 0 1164.81 1198.35 0 1142.46 -1.65 0 1706.89 77.3628 0 1111.41 1198.35 0 1059.34 1198.35 0 1040.34 -1.65 0 997.826 1198.35 0 963.914 1198.35 0 936.752 -1.65 0 909.385 1198.35 0 857.599 1198.35 0 831.082 -1.65 0 797.431 1195.08 0 1670.41 49.9995 0 772.664 1176.69 0 749.409 36.6308 0 713.939 63.2334 0 685.495 1111.31 0 656.894 1089.86 0 628.357 1068.45 0 605.881 144.277 0 573.542 168.531 0 553.316 1012.17 0 524.341 990.443 0 1656.86 1156.04 0 503.896 220.767 0 466.631 248.715 0 451.309 935.668 0 426.019 916.701 0 396.637 301.211 0 359.94 867.141 0 331.871 846.09 0 307.354 368.173 0 276.224 391.521 0 264.595 795.632 0 1626.1 1179.12 0 224.905 765.864 0 196.652 744.675 0 172.331 469.441 0 144.257 490.497 0 113.088 682.001 0 81.7612 658.506 0 59.4906 554.072 0 34.9569 623.403 0 10.3944 604.981 0 0.1 598.35 0 1599.05 -1.51602 0 1555.29 1198.35 0 1521.64 1198.35 0 1492.63 -1.65 0</DataArray>
</Points>
<Verts>
 <DataArray type="Int64" Name="connectivity" format="ascii">0 1 2 3 4 5 6 7 8 9 10 11 12 13 14 15 16 17 18 19 20 21 22 23 24 25 26 27 28 29 30 31 32 33 34 35 36 37 38 39 40 41 42 43 44 45 46 47 48 49 50 51 52 53 54 55 56 57 58 59</DataArray>
 <DataArray type="Int64" Name="offsets" format="ascii">60</DataArray>
</Verts>
<Lines>
 <DataArray type="Int64" Name="connectivity" format="ascii"/>
 <DataArray type="Int64" Name="offsets" format="ascii"/>
</Lines>
<Stripes>
 <DataArray type="Int64" Name="connectivity" format="ascii"/>
 <DataArray type="Int64" Name="offsets" format="ascii"/>
</Stripes>
<Polys>
 <DataArray type="Int64" Name="connectivity" format="ascii"/>
 <DataArray type="Int64" Name="offsets" format="ascii"/>
</Polys>
</Piece>
</PolyData>
</VTKFile>