<?xml version="1.0" encoding="UTF-8" ?>
<VTKFile type="PolyData" version="0.1" order="LittleEndian">
<PolyData>
 <Piece NumberOfPoints="69" NumberOfVerts="1" NumberOfLines="0" NumberOfStrips="0" NumberOfPolys="0">
<PointData>
 <DataArray type="Float64" Name="speed" format="ascii">12.8807 12.4269 13.3125 13.0193 12.9314 12.6099 12.854 13.3708 13.368 13.1824 12.1108 12.3157 13.2189 13.4099 12.1822 12.1847 12.3596 12.8723 12.659 13.2023 12.8769 12.2254 12.5689 12.2155 12.1387 12.937 13.2544 12.8109 12.3573 13.3528 12.8273 12.5568 12.4154 12.6452 12.367 12.5409 12.3083 13.3219 13.0151 12.623 13.2789 12.5819 12.8014 13.2967 12.9276 13.1216 12.7087 12.7807 12.2611 12.9482 12.7573 13.3083 12.4394 12.1421 13.3265 13.3314 13.019 12.8417 12.8884 12.1901 12.9677 13.284 12.5787 12.5048 12.5151 13.3526 13.1971 12.1103 13.3848</DataArray>
</PointData>
<CellData/>
<Points>
 <DataArray type="Float64" Name="Points" NumberOfComponents="3" format="ascii">2389.03 588.967 0 2372.99 618.942 0 2338.29 644.974 0 2299.52 521.832 0 2269.37 499.218 0 2258.44 704.854 0 2226.77 728.611 0 2209.16 454.063 0 2167.84 423.069 0 2160.99 777.948 0 2122.18 807.055 0 2108.55 378.605 0 2066.61 347.153 0 2047.42 863.121 0 2015.28 887.229 0 1991.28 290.654 0 1950.74 260.247 0 1929.63 244.418 0 1907.45 968.103 0 1873.51 993.556 0 1852.82 186.807 0 1832.2 1024.54 0 1800.63 147.666 0 1770.51 125.077 0 1740.96 102.909 0 1706.75 77.2523 0 1678.29 1139.97 0 1657.91 40.6266 0 1620.06 12.2364 0 1594.01 -1.65 0 1552.34 -1.65 0 1514.81 -1.65 0 1466.91 -1.65 0 1426.69 -1.65 0 1391.77 -1.65 0 1339.16 -1.65 0 1309.97 1198.35 0 1272.18 1198.35 0 1253.15 -1.65 0 1202.17 -1.65 0 1161.09 1198.35 0 1123.82 1198.35 0 1088.68 -1.65 0 1053.18 -1.65 0 1013.18 1198.35 0 978.912 -1.65 0 947.674 -1.65 0 908.233 -1.65 0 871.877 -1.65 0 825.671 -1.65 0 797.859 -0.328531 0 768.567 22.2624 0 733.349 48.6756 0 715.864 1134.09 0 687.511 1112.82 0 663.934 100.738 0 631.269 125.236 0 606.318 1051.93 0 573.699 1027.46 0 550.438 185.86 0 527.436 203.111 0 490.38 964.971 0 461.365 943.21 0 441.838 267.31 0 410.5 290.813 0 395.804 894.039 0 371.721 319.898 0 344.375 340.407 0 314.977 833.419 0</DataArray>
</Points>
<Verts>
 <DataArray type="Int64" Name="connectivity" format="ascii">0 1 2 3 4 5 6 7 8 9 10 11 12 13 14 15 16 17 18 19 20 21 22 23 24 25 26 27 28 29 30 31 32 33 34 35 36 37 38 39 40 41 42 43 44 45 46 47 48 49 50 51 52 53 54 55 56 57 58 59 60 61 62 63 64 65 66 67 68</DataArray>
 <DataArray type="Int64" Name="offsets" format="ascii">69</DataArray>
</Verts>
<Lines>
 <DataArray type="Int64" Name="connectivity" format="ascii"/>
 <DataArray type="Int64" Name="offsets" format="ascii"/>
</Lines>
<Stripes>
 <DataArray type="Int64" Name="connectivity" format="ascii"/>
 <DataArray type="Int64" Name="offsets" format="ascii"/>
</Stripes>
<Polys>
 <DataArray type="Int64" Name="connectivity" format="ascii"/>
 <DataArray type="Int64" Name="offsets" format="ascii"/>
</Polys>
</Piece>
</PolyData>
</VTKFile>