<?xml version="1.0" encoding="UTF-8" ?>
<VTKFile type="PolyData" version="0.1" order="LittleEndian">
<PolyData>
 <Piece NumberOfPoints="46" NumberOfVerts="1" NumberOfLines="0" NumberOfStrips="0" NumberOfPolys="0">
<PointData>
 <DataArray type="Float64" Name="speed" format="ascii">12.4438 12.6868 13.2319 12.6182 12.2189 12.5953 12.8625 12.8076 12.2598 13.168 13.3594 13.2995 13.2114 12.7614 13.1112 12.5575 12.7929 12.1209 12.1483 13.198 12.68 12.5844 12.6625 12.1451 12.8643 13.2644 12.5901 12.1865 13.1649 12.8096 12.4259 13.0741 12.5813 12.5701 12.4667 12.6399 12.2791 12.545 12.5002 8.6535 1.60619 12.7882 12.624 12.772 12.9103 13.1618</DataArray>
</PointData>
<CellData/>
<Points>
 <DataArray type="Float64" Name="Points" NumberOfComponents="3" format="ascii">1325.45 1198.35 0 1279.27 1198.35 0 981.427 -1.65 0 955.968 1198.35 0 908.439 1198.35 0 891.844 -1.65 0 844.059 1198.35 0 807.303 1198.35 0 775.114 17.3523 0 748.986 1158.93 0 714.265 1132.89 0 698.741 74.632 0 1256.7 -1.65 0 668.885 1098.85 0 629.028 1068.96 0 615.613 136.978 0 580.099 1032.26 0 553.771 1012.51 0 533.218 198.775 0 508.128 978.283 0 466.847 947.322 0 447.768 262.863 0 417.66 910.431 0 1213.84 -1.65 0 394.522 893.078 0 372.67 319.186 0 337.574 345.509 0 308.362 828.457 0 278.942 806.393 0 248.765 783.76 0 227.321 428.198 0 197.247 450.754 0 175.228 728.607 0 148.092 708.255 0 1198.58 1198.35 0 123.794 505.844 0 94.0033 528.187 0 72.7701 651.763 0 46.1659 631.81 0 17.0611 585.894 0 1.48822 599.161 0 1160.27 1198.35 0 1126.5 -1.65 0 1080.58 1198.35 0 1046.86 1198.35 0 1019.45 -1.65 0</DataArray>
</Points>
<Verts>
 <DataArray type="Int64" Name="connectivity" format="ascii">0 1 2 3 4 5 6 7 8 9 10 11 12 13 14 15 16 17 18 19 20 21 22 23 24 25 26 27 28 29 30 31 32 33 34 35 36 37 38 39 40 41 42 43 44 45</DataArray>
 <DataArray type="Int64" Name="offsets" format="ascii">46</DataArray>
</Verts>
<Lines>
 <DataArray type="Int64" Name="connectivity" format="ascii"/>
 <DataArray type="Int64" Name="offsets" format="ascii"/>
</Lines>
<Stripes>
 <DataArray type="Int64" Name="connectivity" format="ascii"/>
 <DataArray type="Int64" Name="offsets" format="ascii"/>
</Stripes>
<Polys>
 <DataArray type="Int64" Name="connectivity" format="ascii"/>
 <DataArray type="Int64" Name="offsets" format="ascii"/>
</Polys>
</Piece>
</PolyData>
</VTKFile>