<?xml version="1.0" encoding="UTF-8" ?>
<VTKFile type="PolyData" version="0.1" order="LittleEndian">
<PolyData>
 <Piece NumberOfPoints="81" NumberOfVerts="1" NumberOfLines="0" NumberOfStrips="0" NumberOfPolys="0">
<PointData>
 <DataArray type="Float64" Name="speed" format="ascii">10.5139 13.1243 12.8174 12.1506 12.4517 12.2942 12.3038 13.3149 12.2407 12.5696 12.8551 12.1613 12.5806 12.4938 12.3289 12.4129 13.1841 13.1256 12.172 13.1706 13.1502 13.2476 12.7646 13.2509 13.4068 12.0827 12.1615 12.2501 12.3315 12.3797 12.7072 12.8187 13.1908 13.2285 12.3478 12.3617 12.9101 13.1514 12.5162 12.8299 13.1215 12.3656 12.9769 12.769 12.857 13.3257 12.5845 12.4352 12.7882 12.8746 13.3808 12.8725 12.437 12.6278 13.345 13.0894 13.2096 12.1335 12.5975 13.3399 12.6032 12.5023 12.4984 12.452 12.1649 13.3522 12.6246 12.5982 12.8027 13.1596 12.591 12.3018 12.8722 12.1845 12.9429 12.6697 13.3043 13.3156 11.0093 4.04002 0</DataArray>
</PointData>
<CellData/>
<Points>
 <DataArray type="Float64" Name="Points" NumberOfComponents="3" format="ascii">2384.65 610.201 0 2366.55 572.107 0 2331.17 545.57 0 2310.17 529.818 0 2274.03 502.713 0 2244.7 480.718 0 2208.11 453.276 0 2185.87 436.595 0 2148.56 408.609 0 2133.94 798.23 0 2097.6 825.491 0 2069.69 349.462 0 2048.13 862.593 0 2020.31 883.452 0 1991.35 290.707 0 1961.29 268.161 0 1927.53 953.042 0 1906.7 227.214 0 1875.07 203.498 0 1839.99 177.186 0 1815.87 159.097 0 1779.9 132.119 0 1759.23 116.613 0 1728.68 93.701 0 1685.94 61.6483 0 1667.37 47.7224 0 1629.97 19.6713 0 1598.75 -1.5301 0 1555.06 -1.65 0 1525.19 -1.65 0 1497.55 1198.35 0 1466.34 1198.35 0 1439.91 -1.65 0 1398 -1.65 0 1368.58 1198.35 0 1329.47 1198.35 0 1297.7 -1.65 0 1266.32 -1.65 0 1226.46 1198.35 0 1193.07 1198.35 0 1164.85 -1.65 0 1127.63 -1.65 0 1095.07 1198.35 0 1058.72 1198.35 0 1027.63 -1.65 0 996.187 -1.65 0 953.526 -1.65 0 929.588 1198.35 0 888.314 1198.35 0 845.148 -1.65 0 808.728 -1.65 0 791.11 1190.52 0 759.115 1166.52 0 740.25 43.4999 0 704.975 69.9568 0 685.103 1111.01 0 658.102 1090.76 0 642.42 116.873 0 599.885 148.774 0 574.778 1028.27 0 545.176 1006.07 0 525.584 204.501 0 486.064 234.141 0 458.18 255.054 0 438.437 926.014 0 411.105 905.515 0 388.475 307.333 0 357.564 865.359 0 334.626 347.72 0 302.426 371.87 0 273.182 393.803 0 244.014 415.679 0 211.844 756.069 0 186.837 458.562 0 151.015 485.429 0 122.949 506.478 0 95.9561 526.723 0 62.3385 551.936 0 27.9625 577.718 0 6.78932 593.598 0 0.1 598.35 0</DataArray>
</Points>
<Verts>
 <DataArray type="Int64" Name="connectivity" format="ascii">0 1 2 3 4 5 6 7 8 9 10 11 12 13 14 15 16 17 18 19 20 21 22 23 24 25 26 27 28 29 30 31 32 33 34 35 36 37 38 39 40 41 42 43 44 45 46 47 48 49 50 51 52 53 54 55 56 57 58 59 60 61 62 63 64 65 66 67 68 69 70 71 72 73 74 75 76 77 78 79 80</DataArray>
 <DataArray type="Int64" Name="offsets" format="ascii">81</DataArray>
</Verts>
<Lines>
 <DataArray type="Int64" Name="connectivity" format="ascii"/>
 <DataArray type="Int64" Name="offsets" format="ascii"/>
</Lines>
<Stripes>
 <DataArray type="Int64" Name="connectivity" format="ascii"/>
 <DataArray type="Int64" Name="offsets" format="ascii"/>
</Stripes>
<Polys>
 <DataArray type="Int64" Name="connectivity" format="ascii"/>
 <DataArray type="Int64" Name="offsets" format="ascii"/>
</Polys>
</Piece>
</PolyData>
</VTKFile>