<?xml version="1.0" encoding="UTF-8" ?>
<VTKFile type="PolyData" version="0.1" order="LittleEndian">
<PolyData>
 <Piece NumberOfPoints="79" NumberOfVerts="1" NumberOfLines="0" NumberOfStrips="0" NumberOfPolys="0">
<PointData>
 <DataArray type="Float64" Name="speed" format="ascii">8.40325e-005 12.6604 13.2988 12.9999 12.2091 13.0191 12.9607 13.2063 12.9606 12.2456 13.2466 12.7617 13.1017 12.825 13.196 12.7004 12.127 12.1783 13.0151 12.3192 12.1627 12.3743 13.4029 13.2658 13.2385 12.1218 12.4679 13.1385 12.7496 12.4035 13.2955 12.6044 13.0208 12.381 12.6035 12.2488 12.3248 12.9264 13.1556 13.0121 13.0686 13.068 12.4911 13.4063 12.7431 12.1632 12.9552 12.5857 13.4035 13.3974 12.1579 12.7592 12.3578 13.2282 12.7877 12.6939 12.7855 12.7434 13.1324 12.4794 12.2029 12.7847 12.7236 13.4024 13.3178 12.3467 12.3122 12.9935 12.1994 12.4722 12.4735 12.3185 12.8375 12.1915 12.1166 13.1954 11.1231 5.98076 0</DataArray>
</PointData>
<CellData/>
<Points>
 <DataArray type="Float64" Name="Points" NumberOfComponents="3" format="ascii">2398.01 600.181 0 2401.52 598.091 0 2373.77 618.357 0 2333.79 648.347 0 2312 664.691 0 2288.35 513.455 0 2254.3 487.914 0 2236.02 721.67 0 2203.96 745.72 0 2174.4 427.996 0 2156.47 414.546 0 2116.6 811.241 0 2087.58 833.004 0 2067.86 348.089 0 2032.1 321.264 0 1999.68 296.95 0 1962.55 269.103 0 1943.75 255.007 0 1905.86 226.584 0 1871.81 994.83 0 1851.3 185.666 0 1826.28 166.899 0 1796.77 144.766 0 1766.35 121.952 0 1733.98 97.6744 0 1701.14 73.0492 0 1676.95 54.9081 0 1649.04 33.9721 0 1621.86 13.5855 0 1572.91 -1.65 0 1536.07 -1.65 0 1494.41 -1.65 0 1463.09 -1.65 0 1428.47 -1.65 0 1383.21 -1.65 0 1346.59 -1.65 0 1315.51 -1.65 0 1265.94 -1.65 0 1236.25 -1.65 0 1199.54 -1.65 0 1169.2 1198.35 0 1131.07 -1.65 0 1096.43 -1.65 0 1057.86 -1.65 0 1011.17 -1.65 0 983.068 -1.65 0 942.273 -1.65 0 908.652 -1.65 0 857.965 -1.65 0 844.658 1198.35 0 801.333 1197.62 0 770.753 20.6227 0 743.866 40.788 0 718.916 59.501 0 683.874 85.7825 0 657.286 105.724 0 631.811 124.83 0 587.855 157.797 0 564.988 174.947 0 534.969 197.462 0 499.117 224.35 0 473.266 243.739 0 443.193 266.294 0 413.915 288.252 0 374.587 878.127 0 348.003 858.188 0 319.25 359.252 0 289.959 381.219 0 253.573 787.366 0 227.223 767.603 0 207.807 442.834 0 175.965 466.716 0 143.065 704.485 0 116.637 684.663 0 98.3153 524.953 0 65.3986 549.641 0 31.9793 574.705 0 10.5916 590.746 0 0.1 598.35 0</DataArray>
</Points>
<Verts>
 <DataArray type="Int64" Name="connectivity" format="ascii">0 1 2 3 4 5 6 7 8 9 10 11 12 13 14 15 16 17 18 19 20 21 22 23 24 25 26 27 28 29 30 31 32 33 34 35 36 37 38 39 40 41 42 43 44 45 46 47 48 49 50 51 52 53 54 55 56 57 58 59 60 61 62 63 64 65 66 67 68 69 70 71 72 73 74 75 76 77 78</DataArray>
 <DataArray type="Int64" Name="offsets" format="ascii">79</DataArray>
</Verts>
<Lines>
 <DataArray type="Int64" Name="connectivity" format="ascii"/>
 <DataArray type="Int64" Name="offsets" format="ascii"/>
</Lines>
<Stripes>
 <DataArray type="Int64" Name="connectivity" format="ascii"/>
 <DataArray type="Int64" Name="offsets" format="ascii"/>
</Stripes>
<Polys>
 <DataArray type="Int64" Name="connectivity" format="ascii"/>
 <DataArray type="Int64" Name="offsets" format="ascii"/>
</Polys>
</Piece>
</PolyData>
</VTKFile>