<?xml version="1.0" encoding="UTF-8" ?>
<VTKFile type="PolyData" version="0.1" order="LittleEndian">
<PolyData>
 <Piece NumberOfPoints="77" NumberOfVerts="1" NumberOfLines="0" NumberOfStrips="0" NumberOfPolys="0">
<PointData>
 <DataArray type="Float64" Name="speed" format="ascii">1.69086e-008 12.1555 12.6006 13.2965 12.9463 12.5788 12.491 12.1103 12.4563 12.5328 12.3721 12.9486 12.1978 12.6276 12.2449 13.2353 12.9511 12.7707 12.6156 12.6289 13.3241 12.8075 12.9748 12.5636 12.4656 12.7527 12.8944 12.8641 12.2168 12.2511 12.8927 12.17 12.6583 12.6014 12.3505 13.1599 13.0106 12.4818 13.3739 13.2229 12.2465 12.3452 12.2445 12.1958 12.9488 12.4017 12.3131 13.0127 12.9538 12.1655 12.1818 12.3583 12.4347 12.3241 12.2256 12.8088 12.652 12.539 13.3446 12.5441 12.3986 13.1303 12.9469 13.0549 12.8482 12.4239 12.954 12.7389 12.8698 12.4521 12.4263 12.3142 13.2033 12.7272 11.3419 4.39204 0</DataArray>
</PointData>
<CellData/>
<Points>
 <DataArray type="Float64" Name="Points" NumberOfComponents="3" format="ascii">2398.01 600.181 0 2372.18 576.328 0 2343.06 641.394 0 2319.48 536.8 0 2292.6 516.642 0 2267.42 497.761 0 2235.93 474.137 0 2201.73 448.491 0 2166.16 421.813 0 2146.95 407.405 0 2119.17 386.567 0 2092.77 366.77 0 2047.31 332.672 0 2020.38 312.476 0 1985.95 286.658 0 1959.88 267.104 0 1932.98 246.928 0 1895.62 218.911 0 1870.42 200.01 0 1844.01 180.2 0 1805.86 151.591 0 1774.05 127.732 0 1752.17 111.321 0 1727.1 1103.36 0 1692.24 66.369 0 1668.64 48.6709 0 1639.6 26.8957 0 1598.94 -1.52099 0 1570.2 -1.65 0 1525.54 -1.65 0 1496.89 -1.65 0 1445.09 -1.65 0 1432.46 1198.35 0 1385.01 1198.35 0 1350.54 -1.65 0 1317.28 -1.65 0 1285.7 -1.65 0 1239.07 -1.65 0 1211 -1.65 0 1176.84 -1.65 0 1121.68 -1.65 0 1097.24 -1.65 0 1058.28 -1.65 0 1012.43 -1.65 0 982.116 -1.65 0 940.732 -1.65 0 905.161 -1.65 0 859.252 1198.35 0 820.851 1198.35 0 785.512 9.55363 0 756.418 31.3745 0 720.285 1137.4 0 697.584 1120.38 0 674.184 93.0498 0 645.863 114.291 0 610.371 1054.97 0 585.404 1036.24 0 566.215 174.027 0 538.654 194.698 0 499.858 223.795 0 473.719 243.399 0 441.772 267.359 0 405.474 294.583 0 379.991 313.695 0 350.727 335.644 0 316.453 361.349 0 289.033 381.914 0 254.616 407.727 0 226.387 428.899 0 190.065 456.141 0 155.447 482.105 0 123.037 506.412 0 94.5458 527.78 0 62.8448 551.556 0 34.8482 572.554 0 7.2717 593.236 0 0.1 598.35 0</DataArray>
</Points>
<Verts>
 <DataArray type="Int64" Name="connectivity" format="ascii">0 1 2 3 4 5 6 7 8 9 10 11 12 13 14 15 16 17 18 19 20 21 22 23 24 25 26 27 28 29 30 31 32 33 34 35 36 37 38 39 40 41 42 43 44 45 46 47 48 49 50 51 52 53 54 55 56 57 58 59 60 61 62 63 64 65 66 67 68 69 70 71 72 73 74 75 76</DataArray>
 <DataArray type="Int64" Name="offsets" format="ascii">77</DataArray>
</Verts>
<Lines>
 <DataArray type="Int64" Name="connectivity" format="ascii"/>
 <DataArray type="Int64" Name="offsets" format="ascii"/>
</Lines>
<Stripes>
 <DataArray type="Int64" Name="connectivity" format="ascii"/>
 <DataArray type="Int64" Name="offsets" format="ascii"/>
</Stripes>
<Polys>
 <DataArray type="Int64" Name="connectivity" format="ascii"/>
 <DataArray type="Int64" Name="offsets" format="ascii"/>
</Polys>
</Piece>
</PolyData>
</VTKFile>