<?xml version="1.0" encoding="UTF-8" ?>
<VTKFile type="PolyData" version="0.1" order="LittleEndian">
<PolyData>
 <Piece NumberOfPoints="77" NumberOfVerts="1" NumberOfLines="0" NumberOfStrips="0" NumberOfPolys="0">
<PointData>
 <DataArray type="Float64" Name="speed" format="ascii">12.8025 13.0133 12.4499 12.4315 13.0786 12.5899 12.1514 13.2664 13.1321 12.8541 12.4389 12.3849 12.7507 13.3679 12.5636 13.0975 13.1286 13.087 13.0617 13.0036 12.8716 12.5435 12.3663 12.3099 13.3398 13.3343 12.7799 13.092 12.2758 12.4821 12.7164 13.0996 13.1618 12.7385 12.33 12.7338 12.5765 12.9355 13.1622 13.3424 12.3162 13.3227 13.1658 12.6776 12.1703 13.0718 12.4203 12.7025 12.5633 13.3875 12.911 13.261 12.8022 13.2943 12.4443 12.5834 12.9451 12.7253 13.0327 12.4456 12.9706 12.6519 13.3819 12.1702 13.1554 12.9366 12.234 12.2358 12.5748 12.1853 12.406 13.1926 12.9899 12.7436 11.2426 5.71584 0</DataArray>
</PointData>
<CellData/>
<Points>
 <DataArray type="Float64" Name="Points" NumberOfComponents="3" format="ascii">2381.51 583.324 0 2351.36 560.713 0 2319.25 536.63 0 2289.96 514.659 0 2249.65 711.448 0 2216.65 736.198 0 2190.13 439.792 0 2159.67 416.947 0 2124.64 805.209 0 2098.45 824.849 0 2077.63 355.418 0 2054.04 337.72 0 2016.88 886.027 0 1993.43 903.619 0 1974.74 278.244 0 1946.54 257.097 0 1905.15 226.055 0 1881.21 208.102 0 1844.33 180.439 0 1813.29 157.158 0 1786.19 136.835 0 1750.38 109.981 0 1726.02 91.7094 0 1696.72 69.7339 0 1659.75 42.0035 0 1637.77 25.5171 0 1592.15 -1.65 0 1552.19 -1.65 0 1511.87 -1.65 0 1476.33 -1.65 0 1443.36 -1.65 0 1401.7 -1.65 0 1357.04 -1.65 0 1306.15 -1.65 0 1277.33 -1.65 0 1228.69 -1.65 0 1196.57 -1.65 0 1153.31 -1.65 0 1123.48 -1.65 0 1071.99 -1.65 0 1039.64 -1.65 0 1017.29 1198.35 0 977.844 1198.35 0 942.413 -1.65 0 917.686 -1.65 0 882.691 -1.65 0 838.831 1198.35 0 796.991 1194.79 0 775.104 17.3598 0 750.415 35.8763 0 711.792 64.844 0 683.056 86.3962 0 654.256 1087.88 0 634.996 122.441 0 614.869 137.536 0 578.483 1031.05 0 542.14 1003.79 0 526.905 203.51 0 489.333 231.689 0 461.457 252.596 0 445.647 931.422 0 405.194 901.082 0 379.952 313.725 0 347.237 338.261 0 323.344 839.694 0 285.209 811.093 0 270.249 396.002 0 231.149 425.328 0 209.814 441.329 0 174.706 467.66 0 145.952 489.226 0 113.69 513.422 0 85.3393 534.685 0 52.9112 559.006 0 32.5447 621.594 0 9.03923 603.964 0 0.1 598.35 0</DataArray>
</Points>
<Verts>
 <DataArray type="Int64" Name="connectivity" format="ascii">0 1 2 3 4 5 6 7 8 9 10 11 12 13 14 15 16 17 18 19 20 21 22 23 24 25 26 27 28 29 30 31 32 33 34 35 36 37 38 39 40 41 42 43 44 45 46 47 48 49 50 51 52 53 54 55 56 57 58 59 60 61 62 63 64 65 66 67 68 69 70 71 72 73 74 75 76</DataArray>
 <DataArray type="Int64" Name="offsets" format="ascii">77</DataArray>
</Verts>
<Lines>
 <DataArray type="Int64" Name="connectivity" format="ascii"/>
 <DataArray type="Int64" Name="offsets" format="ascii"/>
</Lines>
<Stripes>
 <DataArray type="Int64" Name="connectivity" format="ascii"/>
 <DataArray type="Int64" Name="offsets" format="ascii"/>
</Stripes>
<Polys>
 <DataArray type="Int64" Name="connectivity" format="ascii"/>
 <DataArray type="Int64" Name="offsets" format="ascii"/>
</Polys>
</Piece>
</PolyData>
</VTKFile>