<?xml version="1.0" encoding="UTF-8" ?>
<VTKFile type="PolyData" version="0.1" order="LittleEndian">
<PolyData>
 <Piece NumberOfPoints="77" NumberOfVerts="1" NumberOfLines="0" NumberOfStrips="0" NumberOfPolys="0">
<PointData>
 <DataArray type="Float64" Name="speed" format="ascii">8.88452 12.313 12.37 12.7011 12.7465 12.5988 12.8687 12.2916 12.692 12.5116 12.4357 12.5825 12.1151 12.7515 12.4408 12.5593 12.9032 13.0598 12.5224 12.1188 13.3482 13.1625 13.2135 13.3911 12.5664 12.2552 12.6317 13.2925 12.1802 12.5644 12.631 12.5703 13.0178 12.6483 13.1619 12.6465 12.9733 13.3582 12.7616 13.0594 12.511 13.3522 12.1404 12.4915 12.1493 12.1381 12.493 12.7966 13.1987 13.3523 12.65 12.582 12.2327 12.6639 12.842 12.6585 13.3459 12.27 12.6902 13.1081 12.9671 12.5977 12.6013 12.7507 12.2748 12.6287 13.3138 12.3101 12.4484 12.904 12.9894 12.532 13.3714 12.7705 12.5783 10.765 3.59591</DataArray>
</PointData>
<CellData/>
<Points>
 <DataArray type="Float64" Name="Points" NumberOfComponents="3" format="ascii">2393.67 603.436 0 2374.56 578.116 0 2343 554.441 0 2315.86 534.087 0 2289.82 514.558 0 2252.83 486.817 0 2226.5 467.068 0 2200.06 748.642 0 2163.39 776.145 0 2143.45 404.777 0 2114.76 383.262 0 2082.32 358.934 0 2051.22 335.605 0 2013.18 307.077 0 1981.12 283.031 0 1954.53 263.09 0 1926.01 241.698 0 1895.86 976.789 0 1868.74 997.131 0 1826.9 167.365 0 1793.82 142.559 0 1784.18 1060.56 0 1744.78 1090.1 0 1718.39 1109.9 0 1687.65 62.9324 0 1651.92 36.1326 0 1615.13 8.5412 0 1587.47 -1.65 0 1548.66 -1.65 0 1515.06 -1.65 0 1462.45 -1.65 0 1435.07 -1.65 0 1405.31 -1.65 0 1358.7 -1.65 0 1330.96 -1.65 0 1280.94 -1.65 0 1242.9 -1.65 0 1212.71 -1.65 0 1166.36 -1.65 0 1129.55 -1.65 0 1109.01 1198.35 0 1074.11 1198.35 0 1052.72 -1.65 0 1005.53 -1.65 0 973.169 1198.35 0 925.537 1198.35 0 893.492 1198.35 0 868.235 -1.65 0 821.893 -1.65 0 797.231 1194.95 0 768.179 1173.32 0 743.827 40.8171 0 719.052 59.3991 0 685.55 1111.35 0 650.93 1085.38 0 627.376 128.156 0 598.607 149.733 0 565.4 174.638 0 530.701 200.663 0 504.99 219.946 0 473.856 243.297 0 439.158 926.555 0 418.304 284.961 0 394.282 302.977 0 361.393 327.644 0 329.099 351.865 0 297.703 375.412 0 265.309 399.707 0 238.186 420.05 0 209.561 441.519 0 179.319 464.2 0 145.414 489.629 0 115.32 512.2 0 81.5831 537.502 0 53.7833 558.352 0 24.2013 580.539 0 4.46704 595.327 0</DataArray>
</Points>
<Verts>
 <DataArray type="Int64" Name="connectivity" format="ascii">0 1 2 3 4 5 6 7 8 9 10 11 12 13 14 15 16 17 18 19 20 21 22 23 24 25 26 27 28 29 30 31 32 33 34 35 36 37 38 39 40 41 42 43 44 45 46 47 48 49 50 51 52 53 54 55 56 57 58 59 60 61 62 63 64 65 66 67 68 69 70 71 72 73 74 75 76</DataArray>
 <DataArray type="Int64" Name="offsets" format="ascii">77</DataArray>
</Verts>
<Lines>
 <DataArray type="Int64" Name="connectivity" format="ascii"/>
 <DataArray type="Int64" Name="offsets" format="ascii"/>
</Lines>
<Stripes>
 <DataArray type="Int64" Name="connectivity" format="ascii"/>
 <DataArray type="Int64" Name="offsets" format="ascii"/>
</Stripes>
<Polys>
 <DataArray type="Int64" Name="connectivity" format="ascii"/>
 <DataArray type="Int64" Name="offsets" format="ascii"/>
</Polys>
</Piece>
</PolyData>
</VTKFile>