<?xml version="1.0" encoding="UTF-8" ?>
<VTKFile type="PolyData" version="0.1" order="LittleEndian">
<PolyData>
 <Piece NumberOfPoints="77" NumberOfVerts="1" NumberOfLines="0" NumberOfStrips="0" NumberOfPolys="0">
<PointData>
 <DataArray type="Float64" Name="speed" format="ascii">12.9909 12.3322 13.1338 12.4826 12.8713 12.8102 13.2144 13.1769 12.225 12.474 12.2041 12.2322 12.6698 12.5339 12.429 12.4956 12.9971 12.8577 12.9239 12.2013 13.1481 13.155 12.6876 13.1296 12.5801 13.2401 12.1746 13.2496 12.3978 13.3349 13.3044 12.973 12.2877 13.1084 13.3013 13.0108 12.9922 13.0105 12.4189 13.3924 13.387 12.6263 12.9481 13.2972 13.3337 12.5856 12.514 12.1186 12.1967 12.307 12.8139 12.9969 12.7682 12.9863 13.1528 13.1316 12.4686 12.7555 12.4287 12.5406 13.3331 12.8956 13.1014 12.6939 12.9207 13.2627 12.8516 12.7789 13.2495 13.3587 12.1993 13.3536 13.4081 12.5422 8.91817 5.73354 0</DataArray>
</PointData>
<CellData/>
<Points>
 <DataArray type="Float64" Name="Points" NumberOfComponents="3" format="ascii">2400.54 597.423 0 2367.63 572.911 0 2340.43 552.512 0 2313.16 532.063 0 2272.46 501.54 0 2242.98 479.43 0 2222.17 463.821 0 2197.83 750.314 0 2163.34 419.694 0 2137.72 400.48 0 2106.45 377.03 0 2068.54 348.594 0 2048.19 333.337 0 2009.97 304.673 0 1987.22 287.605 0 1944.68 255.699 0 1935.03 947.416 0 1896.67 976.183 0 1869.43 199.267 0 1843.91 180.122 0 1818.88 161.355 0 1781.22 133.104 0 1757.66 115.438 0 1728.39 93.4847 0 1688.43 63.5116 0 1666.92 47.3817 0 1636.1 24.2698 0 1600.09 -1.33197 0 1567.89 -1.65 0 1531.29 -1.65 0 1492.9 -1.65 0 1443.5 1198.35 0 1403.68 1198.35 0 1372.17 -1.65 0 1335.26 -1.65 0 1288.13 1198.35 0 1259.43 1198.35 0 1227.54 -1.65 0 1192.88 -1.65 0 1150.81 1198.35 0 1118.07 1198.35 0 1095.75 -1.65 0 1060.93 -1.65 0 1010.1 -1.65 0 978.377 -1.65 0 938.542 -1.65 0 892.445 -1.65 0 860.203 -1.65 0 823.252 -1.65 0 787.464 8.08948 0 758.855 29.5463 0 725.584 54.4998 0 698.142 75.0811 0 660.198 103.54 0 625.884 129.275 0 594.145 153.079 0 562.916 176.501 0 533.787 198.348 0 506.11 219.106 0 468.707 247.159 0 428.296 277.467 0 406.46 293.843 0 369.822 321.323 0 338.98 344.454 0 309.249 366.752 0 281.303 387.712 0 244.029 415.668 0 217.443 435.607 0 200.073 747.241 0 170.573 725.115 0 140.552 493.275 0 117.507 510.559 0 89.7946 531.344 0 59.5395 641.84 0 23.5124 614.819 0 8.68308 592.178 0 0.1 598.35 0</DataArray>
</Points>
<Verts>
 <DataArray type="Int64" Name="connectivity" format="ascii">0 1 2 3 4 5 6 7 8 9 10 11 12 13 14 15 16 17 18 19 20 21 22 23 24 25 26 27 28 29 30 31 32 33 34 35 36 37 38 39 40 41 42 43 44 45 46 47 48 49 50 51 52 53 54 55 56 57 58 59 60 61 62 63 64 65 66 67 68 69 70 71 72 73 74 75 76</DataArray>
 <DataArray type="Int64" Name="offsets" format="ascii">77</DataArray>
</Verts>
<Lines>
 <DataArray type="Int64" Name="connectivity" format="ascii"/>
 <DataArray type="Int64" Name="offsets" format="ascii"/>
</Lines>
<Stripes>
 <DataArray type="Int64" Name="connectivity" format="ascii"/>
 <DataArray type="Int64" Name="offsets" format="ascii"/>
</Stripes>
<Polys>
 <DataArray type="Int64" Name="connectivity" format="ascii"/>
 <DataArray type="Int64" Name="offsets" format="ascii"/>
</Polys>
</Piece>
</PolyData>
</VTKFile>