<?xml version="1.0" encoding="UTF-8"?>

<!-- generated on Thu Sep 28 20:52:35 2017 by SUMO Version 0.30.0
<?xml version="1.0" encoding="UTF-8"?>

<configuration xmlns:xsi="http://www.w3.org/2001/XMLSchema-instance" xsi:noNamespaceSchemaLocation="http://sumo.dlr.de/xsd/sumoConfiguration.xsd">

    <input>
        <net-file value="../network/simple.net.xml"/>
        <route-files value="../trips/trip.xml"/>
        <additional-files value="dump_15.add.xml"/>
        <weight-files value="../config/link_weights.xml"/>
    </input>

    <output>
        <summary-output value="summary_15.xml"/>
        <tripinfo-output value="tripinfo_15.xml"/>
        <vehroute-output value="vehroutes_15.xml"/>
        <vehroute-output.exit-times value="false"/>
        <vehroute-output.last-route value="false"/>
        <vehroute-output.sorted value="false"/>
    </output>

    <time>
        <begin value="0"/>
    </time>

    <processing>
        <route-steps value="200"/>
    </processing>

    <routing>
        <routing-algorithm value="astar"/>
        <device.rerouting.probability value="1"/>
        <device.rerouting.period value="15"/>
        <device.rerouting.adaptation-interval value="1"/>
        <device.rerouting.with-taz value="false"/>
    </routing>

    <report>
        <verbose value="true"/>
        <no-warnings value="true"/>
    </report>

</configuration>
-->

<routes xmlns:xsi="http://www.w3.org/2001/XMLSchema-instance" xsi:noNamespaceSchemaLocation="http://sumo.dlr.de/xsd/routes_file.xsd">
    <vehicle id="0" depart="0.00" arrival="224.00">
        <routeDistribution>
            <route replacedOnEdge="" replacedAtTime="0.00" probability="0" edges="-1to0 5to-5"/>
            <route edges="-1to0 0to1 1to3 3to5 5to-5"/>
        </routeDistribution>
    </vehicle>

    <vehicle id="2" depart="5.00" arrival="228.00">
        <routeDistribution>
            <route replacedOnEdge="" replacedAtTime="3.00" probability="0" edges="-1to0 5to-5"/>
            <route replacedOnEdge="" replacedAtTime="5.00" probability="0" edges="-1to0 0to1 1to3 3to5 5to-5"/>
            <route edges="-1to0 0to2 2to4 4to5 5to-5"/>
        </routeDistribution>
    </vehicle>

    <vehicle id="3" depart="8.00" arrival="231.00">
        <routeDistribution>
            <route replacedOnEdge="" replacedAtTime="3.00" probability="0" edges="-1to0 5to-5"/>
            <route replacedOnEdge="" replacedAtTime="5.00" probability="0" edges="-1to0 0to1 1to3 3to5 5to-5"/>
            <route edges="-1to0 0to2 2to4 4to5 5to-5"/>
        </routeDistribution>
    </vehicle>

    <vehicle id="1" depart="3.00" arrival="233.00">
        <routeDistribution>
            <route replacedOnEdge="" replacedAtTime="3.00" probability="0" edges="-1to0 5to-5"/>
            <route edges="-1to0 0to1 1to3 3to5 5to-5"/>
        </routeDistribution>
    </vehicle>

    <vehicle id="4" depart="10.00" arrival="236.00">
        <routeDistribution>
            <route replacedOnEdge="" replacedAtTime="5.00" probability="0" edges="-1to0 5to-5"/>
            <route replacedOnEdge="" replacedAtTime="10.00" probability="0" edges="-1to0 0to2 2to4 4to5 5to-5"/>
            <route edges="-1to0 0to1 1to3 3to5 5to-5"/>
        </routeDistribution>
    </vehicle>

    <vehicle id="6" depart="16.00" arrival="238.00">
        <routeDistribution>
            <route replacedOnEdge="" replacedAtTime="7.00" probability="0" edges="-1to0 5to-5"/>
            <route replacedOnEdge="" replacedAtTime="10.00" probability="0" edges="-1to0 0to2 2to4 4to5 5to-5"/>
            <route replacedOnEdge="" replacedAtTime="16.00" probability="0" edges="-1to0 0to1 1to3 3to5 5to-5"/>
            <route edges="-1to0 0to2 2to4 4to5 5to-5"/>
        </routeDistribution>
    </vehicle>

    <vehicle id="5" depart="13.00" arrival="240.00">
        <routeDistribution>
            <route replacedOnEdge="" replacedAtTime="5.00" probability="0" edges="-1to0 5to-5"/>
            <route replacedOnEdge="" replacedAtTime="10.00" probability="0" edges="-1to0 0to2 2to4 4to5 5to-5"/>
            <route edges="-1to0 0to1 1to3 3to5 5to-5"/>
        </routeDistribution>
    </vehicle>

    <vehicle id="7" depart="19.00" arrival="244.00">
        <routeDistribution>
            <route replacedOnEdge="" replacedAtTime="7.00" probability="0" edges="-1to0 5to-5"/>
            <route replacedOnEdge="" replacedAtTime="10.00" probability="0" edges="-1to0 0to2 2to4 4to5 5to-5"/>
            <route replacedOnEdge="" replacedAtTime="16.00" probability="0" edges="-1to0 0to1 1to3 3to5 5to-5"/>
            <route replacedOnEdge="" replacedAtTime="19.00" probability="0" edges="-1to0 0to2 2to4 4to5 5to-5"/>
            <route edges="-1to0 0to1 1to3 3to5 5to-5"/>
        </routeDistribution>
    </vehicle>

    <vehicle id="9" depart="24.00" arrival="246.00">
        <routeDistribution>
            <route replacedOnEdge="" replacedAtTime="10.00" probability="0" edges="-1to0 5to-5"/>
            <route replacedOnEdge="" replacedAtTime="16.00" probability="0" edges="-1to0 0to1 1to3 3to5 5to-5"/>
            <route replacedOnEdge="" replacedAtTime="19.00" probability="0" edges="-1to0 0to2 2to4 4to5 5to-5"/>
            <route replacedOnEdge="" replacedAtTime="24.00" probability="0" edges="-1to0 0to1 1to3 3to5 5to-5"/>
            <route edges="-1to0 0to2 2to4 4to5 5to-5"/>
        </routeDistribution>
    </vehicle>

    <vehicle id="10" depart="27.00" arrival="249.00">
        <routeDistribution>
            <route replacedOnEdge="" replacedAtTime="10.00" probability="0" edges="-1to0 5to-5"/>
            <route replacedOnEdge="" replacedAtTime="16.00" probability="0" edges="-1to0 0to1 1to3 3to5 5to-5"/>
            <route replacedOnEdge="" replacedAtTime="19.00" probability="0" edges="-1to0 0to2 2to4 4to5 5to-5"/>
            <route replacedOnEdge="" replacedAtTime="24.00" probability="0" edges="-1to0 0to1 1to3 3to5 5to-5"/>
            <route edges="-1to0 0to2 2to4 4to5 5to-5"/>
        </routeDistribution>
    </vehicle>

    <vehicle id="8" depart="22.00" arrival="251.00">
        <routeDistribution>
            <route replacedOnEdge="" replacedAtTime="8.00" probability="0" edges="-1to0 5to-5"/>
            <route replacedOnEdge="" replacedAtTime="10.00" probability="0" edges="-1to0 0to2 2to4 4to5 5to-5"/>
            <route replacedOnEdge="" replacedAtTime="16.00" probability="0" edges="-1to0 0to1 1to3 3to5 5to-5"/>
            <route replacedOnEdge="" replacedAtTime="19.00" probability="0" edges="-1to0 0to2 2to4 4to5 5to-5"/>
            <route edges="-1to0 0to1 1to3 3to5 5to-5"/>
        </routeDistribution>
    </vehicle>

    <vehicle id="11" depart="29.00" arrival="253.00">
        <routeDistribution>
            <route replacedOnEdge="" replacedAtTime="12.00" probability="0" edges="-1to0 5to-5"/>
            <route replacedOnEdge="" replacedAtTime="16.00" probability="0" edges="-1to0 0to1 1to3 3to5 5to-5"/>
            <route replacedOnEdge="" replacedAtTime="19.00" probability="0" edges="-1to0 0to2 2to4 4to5 5to-5"/>
            <route replacedOnEdge="" replacedAtTime="24.00" probability="0" edges="-1to0 0to1 1to3 3to5 5to-5"/>
            <route replacedOnEdge="" replacedAtTime="29.00" probability="0" edges="-1to0 0to2 2to4 4to5 5to-5"/>
            <route edges="-1to0 0to1 1to3 3to5 5to-5"/>
        </routeDistribution>
    </vehicle>

    <vehicle id="13" depart="34.00" arrival="256.00">
        <routeDistribution>
            <route replacedOnEdge="" replacedAtTime="13.00" probability="0" edges="-1to0 5to-5"/>
            <route replacedOnEdge="" replacedAtTime="16.00" probability="0" edges="-1to0 0to1 1to3 3to5 5to-5"/>
            <route replacedOnEdge="" replacedAtTime="19.00" probability="0" edges="-1to0 0to2 2to4 4to5 5to-5"/>
            <route replacedOnEdge="" replacedAtTime="24.00" probability="0" edges="-1to0 0to1 1to3 3to5 5to-5"/>
            <route replacedOnEdge="" replacedAtTime="29.00" probability="0" edges="-1to0 0to2 2to4 4to5 5to-5"/>
            <route replacedOnEdge="" replacedAtTime="34.00" probability="0" edges="-1to0 0to1 1to3 3to5 5to-5"/>
            <route edges="-1to0 0to2 2to4 4to5 5to-5"/>
        </routeDistribution>
    </vehicle>

    <vehicle id="12" depart="32.00" arrival="258.00">
        <routeDistribution>
            <route replacedOnEdge="" replacedAtTime="12.00" probability="0" edges="-1to0 5to-5"/>
            <route replacedOnEdge="" replacedAtTime="16.00" probability="0" edges="-1to0 0to1 1to3 3to5 5to-5"/>
            <route replacedOnEdge="" replacedAtTime="19.00" probability="0" edges="-1to0 0to2 2to4 4to5 5to-5"/>
            <route replacedOnEdge="" replacedAtTime="24.00" probability="0" edges="-1to0 0to1 1to3 3to5 5to-5"/>
            <route replacedOnEdge="" replacedAtTime="29.00" probability="0" edges="-1to0 0to2 2to4 4to5 5to-5"/>
            <route edges="-1to0 0to1 1to3 3to5 5to-5"/>
        </routeDistribution>
    </vehicle>

    <vehicle id="14" depart="37.00" arrival="261.00">
        <routeDistribution>
            <route replacedOnEdge="" replacedAtTime="15.00" probability="0" edges="-1to0 5to-5"/>
            <route replacedOnEdge="" replacedAtTime="16.00" probability="0" edges="-1to0 0to1 1to3 3to5 5to-5"/>
            <route replacedOnEdge="" replacedAtTime="19.00" probability="0" edges="-1to0 0to2 2to4 4to5 5to-5"/>
            <route replacedOnEdge="" replacedAtTime="24.00" probability="0" edges="-1to0 0to1 1to3 3to5 5to-5"/>
            <route replacedOnEdge="" replacedAtTime="29.00" probability="0" edges="-1to0 0to2 2to4 4to5 5to-5"/>
            <route replacedOnEdge="" replacedAtTime="34.00" probability="0" edges="-1to0 0to1 1to3 3to5 5to-5"/>
            <route replacedOnEdge="" replacedAtTime="37.00" probability="0" edges="-1to0 0to2 2to4 4to5 5to-5"/>
            <route edges="-1to0 0to1 1to3 3to5 5to-5"/>
        </routeDistribution>
    </vehicle>

    <vehicle id="15" depart="40.00" arrival="264.00">
        <routeDistribution>
            <route replacedOnEdge="" replacedAtTime="15.00" probability="0" edges="-1to0 5to-5"/>
            <route replacedOnEdge="" replacedAtTime="16.00" probability="0" edges="-1to0 0to1 1to3 3to5 5to-5"/>
            <route replacedOnEdge="" replacedAtTime="19.00" probability="0" edges="-1to0 0to2 2to4 4to5 5to-5"/>
            <route replacedOnEdge="" replacedAtTime="24.00" probability="0" edges="-1to0 0to1 1to3 3to5 5to-5"/>
            <route replacedOnEdge="" replacedAtTime="29.00" probability="0" edges="-1to0 0to2 2to4 4to5 5to-5"/>
            <route replacedOnEdge="" replacedAtTime="34.00" probability="0" edges="-1to0 0to1 1to3 3to5 5to-5"/>
            <route replacedOnEdge="" replacedAtTime="37.00" probability="0" edges="-1to0 0to2 2to4 4to5 5to-5"/>
            <route edges="-1to0 0to1 1to3 3to5 5to-5"/>
        </routeDistribution>
    </vehicle>

    <vehicle id="16" depart="43.00" arrival="266.00">
        <routeDistribution>
            <route replacedOnEdge="" replacedAtTime="16.00" probability="0" edges="-1to0 5to-5"/>
            <route replacedOnEdge="" replacedAtTime="19.00" probability="0" edges="-1to0 0to2 2to4 4to5 5to-5"/>
            <route replacedOnEdge="" replacedAtTime="24.00" probability="0" edges="-1to0 0to1 1to3 3to5 5to-5"/>
            <route replacedOnEdge="" replacedAtTime="29.00" probability="0" edges="-1to0 0to2 2to4 4to5 5to-5"/>
            <route replacedOnEdge="" replacedAtTime="34.00" probability="0" edges="-1to0 0to1 1to3 3to5 5to-5"/>
            <route replacedOnEdge="" replacedAtTime="37.00" probability="0" edges="-1to0 0to2 2to4 4to5 5to-5"/>
            <route replacedOnEdge="" replacedAtTime="43.00" probability="0" edges="-1to0 0to1 1to3 3to5 5to-5"/>
            <route edges="-1to0 0to2 2to4 4to5 5to-5"/>
        </routeDistribution>
    </vehicle>

    <vehicle id="17" depart="46.00" arrival="269.00">
        <routeDistribution>
            <route replacedOnEdge="" replacedAtTime="18.00" probability="0" edges="-1to0 5to-5"/>
            <route replacedOnEdge="" replacedAtTime="19.00" probability="0" edges="-1to0 0to2 2to4 4to5 5to-5"/>
            <route replacedOnEdge="" replacedAtTime="24.00" probability="0" edges="-1to0 0to1 1to3 3to5 5to-5"/>
            <route replacedOnEdge="" replacedAtTime="29.00" probability="0" edges="-1to0 0to2 2to4 4to5 5to-5"/>
            <route replacedOnEdge="" replacedAtTime="34.00" probability="0" edges="-1to0 0to1 1to3 3to5 5to-5"/>
            <route replacedOnEdge="" replacedAtTime="37.00" probability="0" edges="-1to0 0to2 2to4 4to5 5to-5"/>
            <route replacedOnEdge="" replacedAtTime="43.00" probability="0" edges="-1to0 0to1 1to3 3to5 5to-5"/>
            <route replacedOnEdge="" replacedAtTime="46.00" probability="0" edges="-1to0 0to2 2to4 4to5 5to-5"/>
            <route edges="-1to0 0to1 1to3 3to5 5to-5"/>
        </routeDistribution>
    </vehicle>

    <vehicle id="19" depart="51.00" arrival="274.00">
        <routeDistribution>
            <route replacedOnEdge="" replacedAtTime="19.00" probability="0" edges="-1to0 5to-5"/>
            <route replacedOnEdge="" replacedAtTime="24.00" probability="0" edges="-1to0 0to1 1to3 3to5 5to-5"/>
            <route replacedOnEdge="" replacedAtTime="29.00" probability="0" edges="-1to0 0to2 2to4 4to5 5to-5"/>
            <route replacedOnEdge="" replacedAtTime="34.00" probability="0" edges="-1to0 0to1 1to3 3to5 5to-5"/>
            <route replacedOnEdge="" replacedAtTime="37.00" probability="0" edges="-1to0 0to2 2to4 4to5 5to-5"/>
            <route replacedOnEdge="" replacedAtTime="43.00" probability="0" edges="-1to0 0to1 1to3 3to5 5to-5"/>
            <route replacedOnEdge="" replacedAtTime="46.00" probability="0" edges="-1to0 0to2 2to4 4to5 5to-5"/>
            <route replacedOnEdge="" replacedAtTime="51.00" probability="0" edges="-1to0 0to1 1to3 3to5 5to-5"/>
            <route edges="-1to0 0to2 2to4 4to5 5to-5"/>
        </routeDistribution>
    </vehicle>

    <vehicle id="18" depart="49.00" arrival="276.00">
        <routeDistribution>
            <route replacedOnEdge="" replacedAtTime="18.00" probability="0" edges="-1to0 5to-5"/>
            <route replacedOnEdge="" replacedAtTime="19.00" probability="0" edges="-1to0 0to2 2to4 4to5 5to-5"/>
            <route replacedOnEdge="" replacedAtTime="24.00" probability="0" edges="-1to0 0to1 1to3 3to5 5to-5"/>
            <route replacedOnEdge="" replacedAtTime="29.00" probability="0" edges="-1to0 0to2 2to4 4to5 5to-5"/>
            <route replacedOnEdge="" replacedAtTime="34.00" probability="0" edges="-1to0 0to1 1to3 3to5 5to-5"/>
            <route replacedOnEdge="" replacedAtTime="37.00" probability="0" edges="-1to0 0to2 2to4 4to5 5to-5"/>
            <route replacedOnEdge="" replacedAtTime="43.00" probability="0" edges="-1to0 0to1 1to3 3to5 5to-5"/>
            <route replacedOnEdge="" replacedAtTime="46.00" probability="0" edges="-1to0 0to2 2to4 4to5 5to-5"/>
            <route edges="-1to0 0to1 1to3 3to5 5to-5"/>
        </routeDistribution>
    </vehicle>

    <vehicle id="20" depart="54.00" arrival="278.00">
        <routeDistribution>
            <route replacedOnEdge="" replacedAtTime="21.00" probability="0" edges="-1to0 5to-5"/>
            <route replacedOnEdge="" replacedAtTime="24.00" probability="0" edges="-1to0 0to1 1to3 3to5 5to-5"/>
            <route replacedOnEdge="" replacedAtTime="29.00" probability="0" edges="-1to0 0to2 2to4 4to5 5to-5"/>
            <route replacedOnEdge="" replacedAtTime="34.00" probability="0" edges="-1to0 0to1 1to3 3to5 5to-5"/>
            <route replacedOnEdge="" replacedAtTime="37.00" probability="0" edges="-1to0 0to2 2to4 4to5 5to-5"/>
            <route replacedOnEdge="" replacedAtTime="43.00" probability="0" edges="-1to0 0to1 1to3 3to5 5to-5"/>
            <route replacedOnEdge="" replacedAtTime="46.00" probability="0" edges="-1to0 0to2 2to4 4to5 5to-5"/>
            <route replacedOnEdge="" replacedAtTime="51.00" probability="0" edges="-1to0 0to1 1to3 3to5 5to-5"/>
            <route replacedOnEdge="" replacedAtTime="54.00" probability="0" edges="-1to0 0to2 2to4 4to5 5to-5"/>
            <route edges="-1to0 0to1 1to3 3to5 5to-5"/>
        </routeDistribution>
    </vehicle>

    <vehicle id="22" depart="59.00" arrival="282.00">
        <routeDistribution>
            <route replacedOnEdge="" replacedAtTime="22.00" probability="0" edges="-1to0 5to-5"/>
            <route replacedOnEdge="" replacedAtTime="24.00" probability="0" edges="-1to0 0to1 1to3 3to5 5to-5"/>
            <route replacedOnEdge="" replacedAtTime="29.00" probability="0" edges="-1to0 0to2 2to4 4to5 5to-5"/>
            <route replacedOnEdge="" replacedAtTime="34.00" probability="0" edges="-1to0 0to1 1to3 3to5 5to-5"/>
            <route replacedOnEdge="" replacedAtTime="37.00" probability="0" edges="-1to0 0to2 2to4 4to5 5to-5"/>
            <route replacedOnEdge="" replacedAtTime="43.00" probability="0" edges="-1to0 0to1 1to3 3to5 5to-5"/>
            <route replacedOnEdge="" replacedAtTime="46.00" probability="0" edges="-1to0 0to2 2to4 4to5 5to-5"/>
            <route replacedOnEdge="" replacedAtTime="51.00" probability="0" edges="-1to0 0to1 1to3 3to5 5to-5"/>
            <route replacedOnEdge="" replacedAtTime="54.00" probability="0" edges="-1to0 0to2 2to4 4to5 5to-5"/>
            <route replacedOnEdge="" replacedAtTime="59.00" probability="0" edges="-1to0 0to1 1to3 3to5 5to-5"/>
            <route edges="-1to0 0to2 2to4 4to5 5to-5"/>
        </routeDistribution>
    </vehicle>

    <vehicle id="21" depart="57.00" arrival="284.00">
        <routeDistribution>
            <route replacedOnEdge="" replacedAtTime="21.00" probability="0" edges="-1to0 5to-5"/>
            <route replacedOnEdge="" replacedAtTime="24.00" probability="0" edges="-1to0 0to1 1to3 3to5 5to-5"/>
            <route replacedOnEdge="" replacedAtTime="29.00" probability="0" edges="-1to0 0to2 2to4 4to5 5to-5"/>
            <route replacedOnEdge="" replacedAtTime="34.00" probability="0" edges="-1to0 0to1 1to3 3to5 5to-5"/>
            <route replacedOnEdge="" replacedAtTime="37.00" probability="0" edges="-1to0 0to2 2to4 4to5 5to-5"/>
            <route replacedOnEdge="" replacedAtTime="43.00" probability="0" edges="-1to0 0to1 1to3 3to5 5to-5"/>
            <route replacedOnEdge="" replacedAtTime="46.00" probability="0" edges="-1to0 0to2 2to4 4to5 5to-5"/>
            <route replacedOnEdge="" replacedAtTime="51.00" probability="0" edges="-1to0 0to1 1to3 3to5 5to-5"/>
            <route replacedOnEdge="" replacedAtTime="54.00" probability="0" edges="-1to0 0to2 2to4 4to5 5to-5"/>
            <route edges="-1to0 0to1 1to3 3to5 5to-5"/>
        </routeDistribution>
    </vehicle>

    <vehicle id="23" depart="62.00" arrival="287.00">
        <routeDistribution>
            <route replacedOnEdge="" replacedAtTime="24.00" probability="0" edges="-1to0 5to-5"/>
            <route replacedOnEdge="" replacedAtTime="29.00" probability="0" edges="-1to0 0to2 2to4 4to5 5to-5"/>
            <route replacedOnEdge="" replacedAtTime="34.00" probability="0" edges="-1to0 0to1 1to3 3to5 5to-5"/>
            <route replacedOnEdge="" replacedAtTime="37.00" probability="0" edges="-1to0 0to2 2to4 4to5 5to-5"/>
            <route replacedOnEdge="" replacedAtTime="43.00" probability="0" edges="-1to0 0to1 1to3 3to5 5to-5"/>
            <route replacedOnEdge="" replacedAtTime="46.00" probability="0" edges="-1to0 0to2 2to4 4to5 5to-5"/>
            <route replacedOnEdge="" replacedAtTime="51.00" probability="0" edges="-1to0 0to1 1to3 3to5 5to-5"/>
            <route replacedOnEdge="" replacedAtTime="54.00" probability="0" edges="-1to0 0to2 2to4 4to5 5to-5"/>
            <route replacedOnEdge="" replacedAtTime="59.00" probability="0" edges="-1to0 0to1 1to3 3to5 5to-5"/>
            <route replacedOnEdge="" replacedAtTime="62.00" probability="0" edges="-1to0 0to2 2to4 4to5 5to-5"/>
            <route edges="-1to0 0to1 1to3 3to5 5to-5"/>
        </routeDistribution>
    </vehicle>

    <vehicle id="25" depart="67.00" arrival="290.00">
        <routeDistribution>
            <route replacedOnEdge="" replacedAtTime="26.00" probability="0" edges="-1to0 5to-5"/>
            <route replacedOnEdge="" replacedAtTime="29.00" probability="0" edges="-1to0 0to2 2to4 4to5 5to-5"/>
            <route replacedOnEdge="" replacedAtTime="34.00" probability="0" edges="-1to0 0to1 1to3 3to5 5to-5"/>
            <route replacedOnEdge="" replacedAtTime="37.00" probability="0" edges="-1to0 0to2 2to4 4to5 5to-5"/>
            <route replacedOnEdge="" replacedAtTime="43.00" probability="0" edges="-1to0 0to1 1to3 3to5 5to-5"/>
            <route replacedOnEdge="" replacedAtTime="46.00" probability="0" edges="-1to0 0to2 2to4 4to5 5to-5"/>
            <route replacedOnEdge="" replacedAtTime="51.00" probability="0" edges="-1to0 0to1 1to3 3to5 5to-5"/>
            <route replacedOnEdge="" replacedAtTime="54.00" probability="0" edges="-1to0 0to2 2to4 4to5 5to-5"/>
            <route replacedOnEdge="" replacedAtTime="59.00" probability="0" edges="-1to0 0to1 1to3 3to5 5to-5"/>
            <route replacedOnEdge="" replacedAtTime="62.00" probability="0" edges="-1to0 0to2 2to4 4to5 5to-5"/>
            <route replacedOnEdge="" replacedAtTime="67.00" probability="0" edges="-1to0 0to1 1to3 3to5 5to-5"/>
            <route edges="-1to0 0to2 2to4 4to5 5to-5"/>
        </routeDistribution>
    </vehicle>

    <vehicle id="24" depart="65.00" arrival="292.00">
        <routeDistribution>
            <route replacedOnEdge="" replacedAtTime="24.00" probability="0" edges="-1to0 5to-5"/>
            <route replacedOnEdge="" replacedAtTime="29.00" probability="0" edges="-1to0 0to2 2to4 4to5 5to-5"/>
            <route replacedOnEdge="" replacedAtTime="34.00" probability="0" edges="-1to0 0to1 1to3 3to5 5to-5"/>
            <route replacedOnEdge="" replacedAtTime="37.00" probability="0" edges="-1to0 0to2 2to4 4to5 5to-5"/>
            <route replacedOnEdge="" replacedAtTime="43.00" probability="0" edges="-1to0 0to1 1to3 3to5 5to-5"/>
            <route replacedOnEdge="" replacedAtTime="46.00" probability="0" edges="-1to0 0to2 2to4 4to5 5to-5"/>
            <route replacedOnEdge="" replacedAtTime="51.00" probability="0" edges="-1to0 0to1 1to3 3to5 5to-5"/>
            <route replacedOnEdge="" replacedAtTime="54.00" probability="0" edges="-1to0 0to2 2to4 4to5 5to-5"/>
            <route replacedOnEdge="" replacedAtTime="59.00" probability="0" edges="-1to0 0to1 1to3 3to5 5to-5"/>
            <route replacedOnEdge="" replacedAtTime="62.00" probability="0" edges="-1to0 0to2 2to4 4to5 5to-5"/>
            <route edges="-1to0 0to1 1to3 3to5 5to-5"/>
        </routeDistribution>
    </vehicle>

    <vehicle id="26" depart="70.00" arrival="294.00">
        <routeDistribution>
            <route replacedOnEdge="" replacedAtTime="26.00" probability="0" edges="-1to0 5to-5"/>
            <route replacedOnEdge="" replacedAtTime="29.00" probability="0" edges="-1to0 0to2 2to4 4to5 5to-5"/>
            <route replacedOnEdge="" replacedAtTime="34.00" probability="0" edges="-1to0 0to1 1to3 3to5 5to-5"/>
            <route replacedOnEdge="" replacedAtTime="37.00" probability="0" edges="-1to0 0to2 2to4 4to5 5to-5"/>
            <route replacedOnEdge="" replacedAtTime="43.00" probability="0" edges="-1to0 0to1 1to3 3to5 5to-5"/>
            <route replacedOnEdge="" replacedAtTime="46.00" probability="0" edges="-1to0 0to2 2to4 4to5 5to-5"/>
            <route replacedOnEdge="" replacedAtTime="51.00" probability="0" edges="-1to0 0to1 1to3 3to5 5to-5"/>
            <route replacedOnEdge="" replacedAtTime="54.00" probability="0" edges="-1to0 0to2 2to4 4to5 5to-5"/>
            <route replacedOnEdge="" replacedAtTime="59.00" probability="0" edges="-1to0 0to1 1to3 3to5 5to-5"/>
            <route replacedOnEdge="" replacedAtTime="62.00" probability="0" edges="-1to0 0to2 2to4 4to5 5to-5"/>
            <route replacedOnEdge="" replacedAtTime="67.00" probability="0" edges="-1to0 0to1 1to3 3to5 5to-5"/>
            <route replacedOnEdge="" replacedAtTime="70.00" probability="0" edges="-1to0 0to2 2to4 4to5 5to-5"/>
            <route edges="-1to0 0to1 1to3 3to5 5to-5"/>
        </routeDistribution>
    </vehicle>

    <vehicle id="28" depart="75.00" arrival="298.00">
        <routeDistribution>
            <route replacedOnEdge="" replacedAtTime="29.00" probability="0" edges="-1to0 5to-5"/>
            <route replacedOnEdge="" replacedAtTime="34.00" probability="0" edges="-1to0 0to1 1to3 3to5 5to-5"/>
            <route replacedOnEdge="" replacedAtTime="37.00" probability="0" edges="-1to0 0to2 2to4 4to5 5to-5"/>
            <route replacedOnEdge="" replacedAtTime="43.00" probability="0" edges="-1to0 0to1 1to3 3to5 5to-5"/>
            <route replacedOnEdge="" replacedAtTime="46.00" probability="0" edges="-1to0 0to2 2to4 4to5 5to-5"/>
            <route replacedOnEdge="" replacedAtTime="51.00" probability="0" edges="-1to0 0to1 1to3 3to5 5to-5"/>
            <route replacedOnEdge="" replacedAtTime="54.00" probability="0" edges="-1to0 0to2 2to4 4to5 5to-5"/>
            <route replacedOnEdge="" replacedAtTime="59.00" probability="0" edges="-1to0 0to1 1to3 3to5 5to-5"/>
            <route replacedOnEdge="" replacedAtTime="62.00" probability="0" edges="-1to0 0to2 2to4 4to5 5to-5"/>
            <route replacedOnEdge="" replacedAtTime="67.00" probability="0" edges="-1to0 0to1 1to3 3to5 5to-5"/>
            <route replacedOnEdge="" replacedAtTime="70.00" probability="0" edges="-1to0 0to2 2to4 4to5 5to-5"/>
            <route replacedOnEdge="" replacedAtTime="75.00" probability="0" edges="-1to0 0to1 1to3 3to5 5to-5"/>
            <route edges="-1to0 0to2 2to4 4to5 5to-5"/>
        </routeDistribution>
    </vehicle>

    <vehicle id="27" depart="73.00" arrival="300.00">
        <routeDistribution>
            <route replacedOnEdge="" replacedAtTime="27.00" probability="0" edges="-1to0 5to-5"/>
            <route replacedOnEdge="" replacedAtTime="29.00" probability="0" edges="-1to0 0to2 2to4 4to5 5to-5"/>
            <route replacedOnEdge="" replacedAtTime="34.00" probability="0" edges="-1to0 0to1 1to3 3to5 5to-5"/>
            <route replacedOnEdge="" replacedAtTime="37.00" probability="0" edges="-1to0 0to2 2to4 4to5 5to-5"/>
            <route replacedOnEdge="" replacedAtTime="43.00" probability="0" edges="-1to0 0to1 1to3 3to5 5to-5"/>
            <route replacedOnEdge="" replacedAtTime="46.00" probability="0" edges="-1to0 0to2 2to4 4to5 5to-5"/>
            <route replacedOnEdge="" replacedAtTime="51.00" probability="0" edges="-1to0 0to1 1to3 3to5 5to-5"/>
            <route replacedOnEdge="" replacedAtTime="54.00" probability="0" edges="-1to0 0to2 2to4 4to5 5to-5"/>
            <route replacedOnEdge="" replacedAtTime="59.00" probability="0" edges="-1to0 0to1 1to3 3to5 5to-5"/>
            <route replacedOnEdge="" replacedAtTime="62.00" probability="0" edges="-1to0 0to2 2to4 4to5 5to-5"/>
            <route replacedOnEdge="" replacedAtTime="67.00" probability="0" edges="-1to0 0to1 1to3 3to5 5to-5"/>
            <route replacedOnEdge="" replacedAtTime="70.00" probability="0" edges="-1to0 0to2 2to4 4to5 5to-5"/>
            <route edges="-1to0 0to1 1to3 3to5 5to-5"/>
        </routeDistribution>
    </vehicle>

    <vehicle id="29" depart="78.00" arrival="302.00">
        <routeDistribution>
            <route replacedOnEdge="" replacedAtTime="29.00" probability="0" edges="-1to0 5to-5"/>
            <route replacedOnEdge="" replacedAtTime="34.00" probability="0" edges="-1to0 0to1 1to3 3to5 5to-5"/>
            <route replacedOnEdge="" replacedAtTime="37.00" probability="0" edges="-1to0 0to2 2to4 4to5 5to-5"/>
            <route replacedOnEdge="" replacedAtTime="43.00" probability="0" edges="-1to0 0to1 1to3 3to5 5to-5"/>
            <route replacedOnEdge="" replacedAtTime="46.00" probability="0" edges="-1to0 0to2 2to4 4to5 5to-5"/>
            <route replacedOnEdge="" replacedAtTime="51.00" probability="0" edges="-1to0 0to1 1to3 3to5 5to-5"/>
            <route replacedOnEdge="" replacedAtTime="54.00" probability="0" edges="-1to0 0to2 2to4 4to5 5to-5"/>
            <route replacedOnEdge="" replacedAtTime="59.00" probability="0" edges="-1to0 0to1 1to3 3to5 5to-5"/>
            <route replacedOnEdge="" replacedAtTime="62.00" probability="0" edges="-1to0 0to2 2to4 4to5 5to-5"/>
            <route replacedOnEdge="" replacedAtTime="67.00" probability="0" edges="-1to0 0to1 1to3 3to5 5to-5"/>
            <route replacedOnEdge="" replacedAtTime="70.00" probability="0" edges="-1to0 0to2 2to4 4to5 5to-5"/>
            <route replacedOnEdge="" replacedAtTime="75.00" probability="0" edges="-1to0 0to1 1to3 3to5 5to-5"/>
            <route replacedOnEdge="" replacedAtTime="78.00" probability="0" edges="-1to0 0to2 2to4 4to5 5to-5"/>
            <route edges="-1to0 0to1 1to3 3to5 5to-5"/>
        </routeDistribution>
    </vehicle>

    <vehicle id="31" depart="83.00" arrival="306.00">
        <routeDistribution>
            <route replacedOnEdge="" replacedAtTime="31.00" probability="0" edges="-1to0 5to-5"/>
            <route replacedOnEdge="" replacedAtTime="34.00" probability="0" edges="-1to0 0to1 1to3 3to5 5to-5"/>
            <route replacedOnEdge="" replacedAtTime="37.00" probability="0" edges="-1to0 0to2 2to4 4to5 5to-5"/>
            <route replacedOnEdge="" replacedAtTime="43.00" probability="0" edges="-1to0 0to1 1to3 3to5 5to-5"/>
            <route replacedOnEdge="" replacedAtTime="46.00" probability="0" edges="-1to0 0to2 2to4 4to5 5to-5"/>
            <route replacedOnEdge="" replacedAtTime="51.00" probability="0" edges="-1to0 0to1 1to3 3to5 5to-5"/>
            <route replacedOnEdge="" replacedAtTime="54.00" probability="0" edges="-1to0 0to2 2to4 4to5 5to-5"/>
            <route replacedOnEdge="" replacedAtTime="59.00" probability="0" edges="-1to0 0to1 1to3 3to5 5to-5"/>
            <route replacedOnEdge="" replacedAtTime="62.00" probability="0" edges="-1to0 0to2 2to4 4to5 5to-5"/>