<?xml version="1.0" encoding="UTF-8"?>

<!-- generated on 8/22/2016 5:23:13 PM by SUMO gui Version 0.27.0
<?xml version="1.0" encoding="UTF-8"?>

<configuration xmlns:xsi="http://www.w3.org/2001/XMLSchema-instance" xsi:noNamespaceSchemaLocation="http://sumo.dlr.de/xsd/sumo-gui.exeConfiguration.xsd">

    <input>
        <net-file value="D:\Project%20Code\sumo_sim\nyc\config\../network/nyc.net.xml"/>
        <route-files value="D:\Project%20Code\sumo_sim\nyc\config\../trips/trip.xml"/>
        <additional-files value="D:\Project%20Code\sumo_sim\nyc\config\additional_-982139__0_5000.xml"/>
    </input>

    <output>
        <summary-output value="D:\Project%20Code\sumo_sim\nyc\config\../output/summary_-982139__0_5000.xml"/>
    </output>

    <report>
        <log value="D:\Project%20Code\sumo_sim\nyc\config\../output/report_-982139__0_5000.xml"/>
    </report>

</configuration>
-->

<meandata xmlns:xsi="http://www.w3.org/2001/XMLSchema-instance" xsi:noNamespaceSchemaLocation="http://sumo.dlr.de/xsd/meandata_file.xsd">
    <interval begin="0.00" end="1709.00" id="1">
        <edge id="--981111" sampledSeconds="0.00" departed="0" arrived="0" entered="0" left="0" laneChangedFrom="0" laneChangedTo="0"/>
        <edge id="--981135" sampledSeconds="0.00" departed="0" arrived="0" entered="0" left="0" laneChangedFrom="0" laneChangedTo="0"/>
        <edge id="--981143" sampledSeconds="0.00" departed="0" arrived="0" entered="0" left="0" laneChangedFrom="0" laneChangedTo="0"/>
        <edge id="--981153" sampledSeconds="0.00" departed="0" arrived="0" entered="0" left="0" laneChangedFrom="0" laneChangedTo="0"/>
        <edge id="--981167#0" sampledSeconds="0.00" departed="0" arrived="0" entered="0" left="0" laneChangedFrom="0" laneChangedTo="0"/>
        <edge id="--981167#1" sampledSeconds="0.00" departed="0" arrived="0" entered="0" left="0" laneChangedFrom="0" laneChangedTo="0"/>
        <edge id="--981191#0" sampledSeconds="0.00" departed="0" arrived="0" entered="0" left="0" laneChangedFrom="0" laneChangedTo="0"/>
        <edge id="--981191#1" sampledSeconds="0.00" departed="0" arrived="0" entered="0" left="0" laneChangedFrom="0" laneChangedTo="0"/>
        <edge id="--981194" sampledSeconds="0.00" departed="0" arrived="0" entered="0" left="0" laneChangedFrom="0" laneChangedTo="0"/>
        <edge id="--981198" sampledSeconds="0.00" departed="0" arrived="0" entered="0" left="0" laneChangedFrom="0" laneChangedTo="0"/>
        <edge id="--981201#0" sampledSeconds="405.15" traveltime="10.40" density="6.91" occupancy="1.15" waitingTime="312.00" speed="3.30" departed="0" arrived="0" entered="34" left="34" laneChangedFrom="1" laneChangedTo="1"/>
        <edge id="--981201#1" sampledSeconds="35.99" traveltime="0.83" density="1.13" occupancy="0.19" waitingTime="0.00" speed="22.31" departed="0" arrived="0" entered="34" left="34" laneChangedFrom="1" laneChangedTo="1"/>
        <edge id="--981201#10" sampledSeconds="35.17" traveltime="0.29" density="10.09" occupancy="1.68" waitingTime="0.00" speed="7.01" departed="0" arrived="0" entered="35" left="35" laneChangedFrom="0" laneChangedTo="0"/>
        <edge id="--981201#11" sampledSeconds="47.43" traveltime="0.20" density="31.19" occupancy="5.20" waitingTime="0.00" speed="4.35" departed="0" arrived="0" entered="35" left="35" laneChangedFrom="0" laneChangedTo="0"/>
        <edge id="--981201#12" sampledSeconds="290.69" traveltime="7.71" density="2.63" occupancy="0.44" waitingTime="89.00" speed="8.40" departed="0" arrived="0" entered="35" left="35" laneChangedFrom="3" laneChangedTo="3"/>
        <edge id="--981201#13" sampledSeconds="29.83" traveltime="0.28" density="7.15" occupancy="1.19" waitingTime="0.00" speed="8.73" departed="0" arrived="0" entered="35" left="35" laneChangedFrom="1" laneChangedTo="1"/>
        <edge id="--981201#14" sampledSeconds="1216.91" traveltime="19.98" density="165.60" occupancy="27.60" waitingTime="1124.00" speed="0.22" departed="0" arrived="0" entered="29" left="28" laneChangedFrom="2" laneChangedTo="2"/>
        <edge id="--981201#15" sampledSeconds="1449.07" traveltime="46.63" density="12.57" occupancy="2.09" waitingTime="1227.00" speed="1.45" departed="0" arrived="0" entered="29" left="29" laneChangedFrom="7" laneChangedTo="7"/>
        <edge id="--981201#16" sampledSeconds="16.18" traveltime="0.26" density="2.25" occupancy="0.38" waitingTime="0.00" speed="16.33" departed="0" arrived="0" entered="29" left="29" laneChangedFrom="1" laneChangedTo="1"/>
        <edge id="--981201#17" sampledSeconds="11.49" traveltime="0.22" density="1.34" occupancy="0.22" waitingTime="0.00" speed="22.63" departed="0" arrived="0" entered="26" left="26" laneChangedFrom="0" laneChangedTo="0"/>
        <edge id="--981201#18" sampledSeconds="75.91" traveltime="2.73" density="0.63" occupancy="0.11" waitingTime="0.00" speed="25.68" departed="0" arrived="0" entered="26" left="26" laneChangedFrom="0" laneChangedTo="0"/>
        <edge id="--981201#19" sampledSeconds="71.96" traveltime="2.58" density="0.62" occupancy="0.10" waitingTime="0.00" speed="26.46" departed="0" arrived="0" entered="26" left="26" laneChangedFrom="1" laneChangedTo="1"/>
        <edge id="--981201#2" sampledSeconds="12.08" traveltime="0.12" density="2.63" occupancy="0.44" waitingTime="0.00" speed="21.58" departed="0" arrived="0" entered="34" left="34" laneChangedFrom="0" laneChangedTo="0"/>
        <edge id="--981201#20" sampledSeconds="74.82" traveltime="2.68" density="0.64" occupancy="0.11" waitingTime="0.00" speed="25.39" departed="0" arrived="0" entered="26" left="26" laneChangedFrom="0" laneChangedTo="0"/>
        <edge id="--981201#21" sampledSeconds="128.33" traveltime="4.60" density="1.10" occupancy="0.18" waitingTime="52.00" speed="14.82" departed="0" arrived="0" entered="26" left="26" laneChangedFrom="3" laneChangedTo="3"/>
        <edge id="--981201#22" sampledSeconds="68.73" traveltime="2.45" density="0.63" occupancy="0.10" waitingTime="0.00" speed="26.14" departed="0" arrived="0" entered="26" left="26" laneChangedFrom="1" laneChangedTo="1"/>
        <edge id="--981201#23" sampledSeconds="9.26" traveltime="0.16" density="1.34" occupancy="0.22" waitingTime="0.00" speed="25.42" departed="0" arrived="0" entered="26" left="26" laneChangedFrom="0" laneChangedTo="0"/>
        <edge id="--981201#24" sampledSeconds="9.81" traveltime="0.18" density="1.32" occupancy="0.22" waitingTime="0.00" speed="24.77" departed="0" arrived="0" entered="26" left="26" laneChangedFrom="0" laneChangedTo="0"/>
        <edge id="--981201#25" sampledSeconds="76.73" traveltime="2.72" density="0.75" occupancy="0.13" waitingTime="0.00" speed="21.96" departed="0" arrived="0" entered="26" left="26" laneChangedFrom="0" laneChangedTo="0"/>
        <edge id="--981201#26" sampledSeconds="11.13" traveltime="0.17" density="2.01" occupancy="0.34" waitingTime="0.00" speed="19.24" departed="0" arrived="0" entered="26" left="26" laneChangedFrom="0" laneChangedTo="0"/>
        <edge id="--981201#27" sampledSeconds="15.01" traveltime="0.30" density="1.60" occupancy="0.27" waitingTime="0.00" speed="18.17" departed="0" arrived="0" entered="26" left="26" laneChangedFrom="0" laneChangedTo="0"/>
        <edge id="--981201#28" sampledSeconds="141.54" traveltime="5.05" density="1.30" occupancy="0.22" waitingTime="0.00" speed="12.65" departed="0" arrived="0" entered="26" left="26" laneChangedFrom="0" laneChangedTo="0"/>
        <edge id="--981201#29" sampledSeconds="27.66" traveltime="0.36" density="6.20" occupancy="1.03" waitingTime="0.00" speed="7.15" departed="0" arrived="0" entered="26" left="26" laneChangedFrom="0" laneChangedTo="0"/>
        <edge id="--981201#3" sampledSeconds="73.26" traveltime="1.05" density="9.10" occupancy="1.52" waitingTime="53.00" speed="4.51" departed="0" arrived="0" entered="34" left="34" laneChangedFrom="1" laneChangedTo="1"/>
        <edge id="--981201#30" sampledSeconds="632.51" traveltime="12.80" density="64.25" occupancy="10.71" waitingTime="535.00" speed="0.45" departed="0" arrived="0" entered="27" left="26" laneChangedFrom="1" laneChangedTo="1"/>
        <edge id="--981201#31" sampledSeconds="761.44" traveltime="26.18" density="6.88" occupancy="1.15" waitingTime="556.00" speed="2.47" departed="0" arrived="0" entered="27" left="27" laneChangedFrom="8" laneChangedTo="8"/>
        <edge id="--981201#32" sampledSeconds="20.26" traveltime="0.29" density="3.74" occupancy="0.62" waitingTime="0.00" speed="10.89" departed="0" arrived="0" entered="27" left="27" laneChangedFrom="0" laneChangedTo="0"/>
        <edge id="--981201#33" sampledSeconds="205.97" traveltime="22.33" density="20.36" occupancy="3.39" waitingTime="188.00" speed="0.27" departed="0" arrived="0" entered="5" left="5" laneChangedFrom="0" laneChangedTo="0"/>
        <edge id="--981201#34" sampledSeconds="39.38" traveltime="7.33" density="0.34" occupancy="0.06" waitingTime="3.62" speed="9.24" departed="0" arrived="0" entered="5" left="5" laneChangedFrom="0" laneChangedTo="0"/>
        <edge id="--981201#4" sampledSeconds="97.07" traveltime="2.65" density="0.89" occupancy="0.15" waitingTime="0.00" speed="24.08" departed="0" arrived="0" entered="34" left="34" laneChangedFrom="0" laneChangedTo="0"/>
        <edge id="--981201#5" sampledSeconds="156.45" traveltime="4.15" density="1.39" occupancy="0.23" waitingTime="56.00" speed="15.85" departed="0" arrived="0" entered="35" left="35" laneChangedFrom="1" laneChangedTo="1"/>
        <edge id="--981201#6" sampledSeconds="12.43" traveltime="0.16" density="1.79" occupancy="0.30" waitingTime="0.00" speed="25.54" departed="0" arrived="0" entered="35" left="35" laneChangedFrom="0" laneChangedTo="0"/>
        <edge id="--981201#7" sampledSeconds="14.77" traveltime="0.22" density="1.55" occupancy="0.26" waitingTime="0.00" speed="25.03" departed="0" arrived="0" entered="35" left="35" laneChangedFrom="0" laneChangedTo="0"/>
        <edge id="--981201#8" sampledSeconds="120.38" traveltime="3.21" density="1.02" occupancy="0.17" waitingTime="0.00" speed="21.59" departed="0" arrived="0" entered="35" left="35" laneChangedFrom="0" laneChangedTo="0"/>
        <edge id="--981201#9" sampledSeconds="268.14" traveltime="7.16" density="2.21" occupancy="0.37" waitingTime="56.00" speed="9.93" departed="0" arrived="0" entered="35" left="35" laneChangedFrom="2" laneChangedTo="2"/>
        <edge id="--981206" sampledSeconds="0.00" departed="0" arrived="0" entered="0" left="0" laneChangedFrom="0" laneChangedTo="0"/>
        <edge id="--981218#0" sampledSeconds="0.00" departed="0" arrived="0" entered="0" left="0" laneChangedFrom="0" laneChangedTo="0"/>
        <edge id="--981218#1" sampledSeconds="0.00" departed="0" arrived="0" entered="0" left="0" laneChangedFrom="0" laneChangedTo="0"/>
        <edge id="--981218#2" sampledSeconds="7.27" traveltime="1.68" density="0.38" occupancy="0.09" waitingTime="0.00" speed="6.70" departed="0" arrived="0" entered="3" left="3" laneChangedFrom="0" laneChangedTo="0"/>
        <edge id="--981218#3" sampledSeconds="149.33" traveltime="36.36" density="0.67" occupancy="0.17" waitingTime="92.00" speed="3.60" departed="0" arrived="0" entered="4" left="3" laneChangedFrom="4" laneChangedTo="4"/>
        <edge id="--981218#4" sampledSeconds="0.00" departed="0" arrived="0" entered="0" left="0" laneChangedFrom="0" laneChangedTo="0"/>
        <edge id="--981218#5" sampledSeconds="0.00" departed="0" arrived="0" entered="0" left="0" laneChangedFrom="0" laneChangedTo="0"/>
        <edge id="--981218#6" sampledSeconds="11.41" traveltime="11.15" density="0.03" occupancy="0.01" waitingTime="0.00" speed="19.61" departed="0" arrived="0" entered="1" left="1" laneChangedFrom="0" laneChangedTo="0"/>
        <edge id="--981218#7" sampledSeconds="13.01" traveltime="12.70" density="0.04" occupancy="0.01" waitingTime="0.00" speed="16.11" departed="0" arrived="0" entered="1" left="1" laneChangedFrom="1" laneChangedTo="1"/>
        <edge id="--981224#0" sampledSeconds="0.00" departed="0" arrived="0" entered="0" left="0" laneChangedFrom="0" laneChangedTo="0"/>
        <edge id="--981224#1" sampledSeconds="0.00" departed="0" arrived="0" entered="0" left="0" laneChangedFrom="0" laneChangedTo="0"/>
        <edge id="--981225" sampledSeconds="0.96" traveltime="0.78" density="0.03" occupancy="0.01" waitingTime="0.00" speed="27.69" departed="0" arrived="0" entered="1" left="1" laneChangedFrom="0" laneChangedTo="0"/>
        <edge id="--981233" sampledSeconds="0.00" departed="0" arrived="0" entered="0" left="0" laneChangedFrom="0" laneChangedTo="0"/>
        <edge id="--981239#0" sampledSeconds="0.00" departed="0" arrived="0" entered="0" left="0" laneChangedFrom="0" laneChangedTo="0"/>
        <edge id="--981239#1" sampledSeconds="0.00" departed="0" arrived="0" entered="0" left="0" laneChangedFrom="0" laneChangedTo="0"/>
        <edge id="--981239#2" sampledSeconds="0.00" departed="0" arrived="0" entered="0" left="0" laneChangedFrom="0" laneChangedTo="0"/>
        <edge id="--981239#3" sampledSeconds="0.00" departed="0" arrived="0" entered="0" left="0" laneChangedFrom="0" laneChangedTo="0"/>
        <edge id="--981239#4" sampledSeconds="0.00" departed="0" arrived="0" entered="0" left="0" laneChangedFrom="0" laneChangedTo="0"/>
        <edge id="--981239#5" sampledSeconds="0.00" departed="0" arrived="0" entered="0" left="0" laneChangedFrom="0" laneChangedTo="0"/>
        <edge id="--981239#6" sampledSeconds="0.00" departed="0" arrived="0" entered="0" left="0" laneChangedFrom="0" laneChangedTo="0"/>
        <edge id="--981244#0" sampledSeconds="0.00" departed="0" arrived="0" entered="0" left="0" laneChangedFrom="0" laneChangedTo="0"/>
        <edge id="--981244#1" sampledSeconds="0.00" departed="0" arrived="0" entered="0" left="0" laneChangedFrom="0" laneChangedTo="0"/>
        <edge id="--981244#2" sampledSeconds="0.00" departed="0" arrived="0" entered="0" left="0" laneChangedFrom="0" laneChangedTo="0"/>
        <edge id="--981250" sampledSeconds="0.00" departed="0" arrived="0" entered="0" left="0" laneChangedFrom="0" laneChangedTo="0"/>
        <edge id="--981251" sampledSeconds="0.00" departed="0" arrived="0" entered="0" left="0" laneChangedFrom="0" laneChangedTo="0"/>
        <edge id="--981256" sampledSeconds="0.00" departed="0" arrived="0" entered="0" left="0" laneChangedFrom="0" laneChangedTo="0"/>
        <edge id="--981275" sampledSeconds="5.90" traveltime="1.56" density="0.18" occupancy="0.09" waitingTime="0.00" speed="12.16" departed="0" arrived="0" entered="3" left="3" laneChangedFrom="0" laneChangedTo="0"/>
        <edge id="--981279#0" sampledSeconds="196.63" traveltime="63.74" density="0.65" occupancy="0.16" waitingTime="147.00" speed="2.77" departed="0" arrived="0" entered="3" left="3" laneChangedFrom="3" laneChangedTo="3"/>
        <edge id="--981279#1" sampledSeconds="0.00" departed="0" arrived="0" entered="0" left="0" laneChangedFrom="0" laneChangedTo="0"/>
        <edge id="--981290" sampledSeconds="0.00" departed="0" arrived="0" entered="0" left="0" laneChangedFrom="0" laneChangedTo="0"/>
        <edge id="--981317" sampledSeconds="0.00" departed="0" arrived="0" entered="0" left="0" laneChangedFrom="0" laneChangedTo="0"/>
        <edge id="--981321" sampledSeconds="0.00" departed="0" arrived="0" entered="0" left="0" laneChangedFrom="0" laneChangedTo="0"/>
        <edge id="--981324#1" sampledSeconds="0.00" departed="0" arrived="0" entered="0" left="0" laneChangedFrom="0" laneChangedTo="0"/>
        <edge id="--981328" sampledSeconds="0.00" departed="0" arrived="0" entered="0" left="0" laneChangedFrom="0" laneChangedTo="0"/>
        <edge id="--981350#0" sampledSeconds="0.00" departed="0" arrived="0" entered="0" left="0" laneChangedFrom="0" laneChangedTo="0"/>
        <edge id="--981350#1" sampledSeconds="0.00" departed="0" arrived="0" entered="0" left="0" laneChangedFrom="0" laneChangedTo="0"/>
        <edge id="--981353#0" sampledSeconds="0.00" departed="0" arrived="0" entered="0" left="0" laneChangedFrom="0" laneChangedTo="0"/>
        <edge id="--981353#1" sampledSeconds="0.00" departed="0" arrived="0" entered="0" left="0" laneChangedFrom="0" laneChangedTo="0"/>
        <edge id="--981353#2" sampledSeconds="0.00" departed="0" arrived="0" entered="0" left="0" laneChangedFrom="0" laneChangedTo="0"/>
        <edge id="--981353#3" sampledSeconds="0.00" departed="0" arrived="0" entered="0" left="0" laneChangedFrom="0" laneChangedTo="0"/>
        <edge id="--981353#4" sampledSeconds="0.00" departed="0" arrived="0" entered="0" left="0" laneChangedFrom="0" laneChangedTo="0"/>
        <edge id="--981356#0" sampledSeconds="0.00" departed="0" arrived="0" entered="0" left="0" laneChangedFrom="0" laneChangedTo="0"/>
        <edge id="--981356#1" sampledSeconds="0.00" departed="0" arrived="0" entered="0" left="0" laneChangedFrom="0" laneChangedTo="0"/>
        <edge id="--981362" sampledSeconds="0.00" departed="0" arrived="0" entered="0" left="0" laneChangedFrom="0" laneChangedTo="0"/>
        <edge id="--981363" sampledSeconds="0.00" departed="0" arrived="0" entered="0" left="0" laneChangedFrom="0" laneChangedTo="0"/>
        <edge id="--981372" sampledSeconds="0.00" departed="0" arrived="0" entered="0" left="0" laneChangedFrom="0" laneChangedTo="0"/>
        <edge id="--981379" sampledSeconds="0.00" departed="0" arrived="0" entered="0" left="0" laneChangedFrom="0" laneChangedTo="0"/>
        <edge id="--981381#0" sampledSeconds="0.00" departed="0" arrived="0" entered="0" left="0" laneChangedFrom="0" laneChangedTo="0"/>
        <edge id="--981381#1" sampledSeconds="0.00" departed="0" arrived="0" entered="0" left="0" laneChangedFrom="0" laneChangedTo="0"/>
        <edge id="--981382" sampledSeconds="0.00" departed="0" arrived="0" entered="0" left="0" laneChangedFrom="0" laneChangedTo="0"/>
        <edge id="--981395" sampledSeconds="21.05" traveltime="1.11" density="0.45" occupancy="0.07" waitingTime="0.00" speed="24.61" departed="0" arrived="0" entered="16" left="16" laneChangedFrom="0" laneChangedTo="0"/>
        <edge id="--981397" sampledSeconds="0.00" departed="0" arrived="0" entered="0" left="0" laneChangedFrom="0" laneChangedTo="0"/>
        <edge id="--981399#0" sampledSeconds="332.53" traveltime="31.19" density="2.80" occupancy="0.70" waitingTime="242.00" speed="2.23" departed="0" arrived="0" entered="10" left="10" laneChangedFrom="0" laneChangedTo="0"/>
        <edge id="--981399#1" sampledSeconds="33.48" traveltime="3.12" density="0.28" occupancy="0.07" waitingTime="0.00" speed="22.09" departed="0" arrived="0" entered="10" left="10" laneChangedFrom="6" laneChangedTo="6"/>
        <edge id="--981399#2" sampledSeconds="44.34" traveltime="4.09" density="0.43" occupancy="0.11" waitingTime="0.00" speed="14.72" departed="0" arrived="0" entered="10" left="10" laneChangedFrom="0" laneChangedTo="0"/>
        <edge id="--981401#0" sampledSeconds="0.00" departed="0" arrived="0" entered="0" left="0" laneChangedFrom="0" laneChangedTo="0"/>
        <edge id="--981401#1" sampledSeconds="0.00" departed="0" arrived="0" entered="0" left="0" laneChangedFrom="0" laneChangedTo="0"/>
        <edge id="--981401#2" sampledSeconds="0.00" departed="0" arrived="0" entered="0" left="0" laneChangedFrom="0" laneChangedTo="0"/>
        <edge id="--981401#3" sampledSeconds="0.00" departed="0" arrived="0" entered="0" left="0" laneChangedFrom="0" laneChangedTo="0"/>
        <edge id="--981401#4" sampledSeconds="0.00" departed="0" arrived="0" entered="0" left="0" laneChangedFrom="0" laneChangedTo="0"/>
        <edge id="--981405#0" sampledSeconds="268.30" traveltime="26.32" density="0.61" occupancy="0.31" waitingTime="52.00" speed="9.77" departed="0" arrived="0" entered="10" left="10" laneChangedFrom="0" laneChangedTo="0"/>
        <edge id="--981405#1" sampledSeconds="1.12" traveltime="0.52" density="0.15" occupancy="0.08" waitingTime="0.00" speed="8.37" departed="0" arrived="0" entered="1" left="1" laneChangedFrom="0" laneChangedTo="0"/>
        <edge id="--981414#0" sampledSeconds="0.73" traveltime="0.46" density="0.05" occupancy="0.01" waitingTime="0.00" speed="17.96" departed="0" arrived="0" entered="1" left="1" laneChangedFrom="0" laneChangedTo="0"/>
        <edge id="--981414#1" sampledSeconds="3.43" traveltime="3.02" density="0.06" occupancy="0.01" waitingTime="0.00" speed="12.02" departed="0" arrived="0" entered="1" left="1" laneChangedFrom="0" laneChangedTo="0"/>
        <edge id="--981414#2" sampledSeconds="0.00" departed="0" arrived="0" entered="0" left="0" laneChangedFrom="0" laneChangedTo="0"/>
        <edge id="--981417" sampledSeconds="0.00" departed="0" arrived="0" entered="0" left="0" laneChangedFrom="0" laneChangedTo="0"/>
        <edge id="--981421#0" sampledSeconds="0.00" departed="0" arrived="0" entered="0" left="0" laneChangedFrom="0" laneChangedTo="0"/>
        <edge id="--981421#1" sampledSeconds="0.00" departed="0" arrived="0" entered="0" left="0" laneChangedFrom="0" laneChangedTo="0"/>
        <edge id="--981421#2" sampledSeconds="0.00" departed="0" arrived="0" entered="0" left="0" laneChangedFrom="0" laneChangedTo="0"/>
        <edge id="--981421#3" sampledSeconds="0.00" departed="0" arrived="0" entered="0" left="0" laneChangedFrom="0" laneChangedTo="0"/>
        <edge id="--981421#4" sampledSeconds="0.00" departed="0" arrived="0" entered="0" left="0" laneChangedFrom="0" laneChangedTo="0"/>
        <edge id="--981421#5" sampledSeconds="0.00" departed="0" arrived="0" entered="0" left="0" laneChangedFrom="0" laneChangedTo="0"/>
        <edge id="--981424" sampledSeconds="0.00" departed="0" arrived="0" entered="0" left="0" laneChangedFrom="0" laneChangedTo="0"/>
        <edge id="--981426#0" sampledSeconds="0.00" departed="0" arrived="0" entered="0" left="0" laneChangedFrom="0" laneChangedTo="0"/>
        <edge id="--981426#1" sampledSeconds="0.00" departed="0" arrived="0" entered="0" left="0" laneChangedFrom="0" laneChangedTo="0"/>
        <edge id="--981431" sampledSeconds="0.00" departed="0" arrived="0" entered="0" left="0" laneChangedFrom="0" laneChangedTo="0"/>
        <edge id="--981432" sampledSeconds="0.00" departed="0" arrived="0" entered="0" left="0" laneChangedFrom="0" laneChangedTo="0"/>
        <edge id="--981436#0" sampledSeconds="0.00" departed="0" arrived="0" entered="0" left="0" laneChangedFrom="0" laneChangedTo="0"/>
        <edge id="--981436#1" sampledSeconds="0.00" departed="0" arrived="0" entered="0" left="0" laneChangedFrom="0" laneChangedTo="0"/>
        <edge id="--981436#2" sampledSeconds="0.00" departed="0" arrived="0" entered="0" left="0" laneChangedFrom="0" laneChangedTo="0"/>
        <edge id="--981436#3" sampledSeconds="0.00" departed="0" arrived="0" entered="0" left="0" laneChangedFrom="0" laneChangedTo="0"/>
        <edge id="--981436#4" sampledSeconds="0.00" departed="0" arrived="0" entered="0" left="0" laneChangedFrom="0" laneChangedTo="0"/>
        <edge id="--981436#5" sampledSeconds="0.00" departed="0" arrived="0" entered="0" left="0" laneChangedFrom="0" laneChangedTo="0"/>
        <edge id="--981445" sampledSeconds="0.00" departed="0" arrived="0" entered="0" left="0" laneChangedFrom="0" laneChangedTo="0"/>
        <edge id="--981450" sampledSeconds="0.00" departed="0" arrived="0" entered="0" left="0" laneChangedFrom="0" laneChangedTo="0"/>
        <edge id="--981452" sampledSeconds="0.00" departed="0" arrived="0" entered="0" left="0" laneChangedFrom="0" laneChangedTo="0"/>
        <edge id="--981458" sampledSeconds="0.00" departed="0" arrived="0" entered="0" left="0" laneChangedFrom="0" laneChangedTo="0"/>
        <edge id="--981462#0" sampledSeconds="2.71" traveltime="2.52" density="0.02" occupancy="0.01" waitingTime="0.00" speed="26.86" departed="0" arrived="0" entered="1" left="1" laneChangedFrom="0" laneChangedTo="0"/>
        <edge id="--981462#1" sampledSeconds="2.62" traveltime="2.43" density="0.02" occupancy="0.01" waitingTime="0.00" speed="27.12" departed="0" arrived="0" entered="1" left="1" laneChangedFrom="0" laneChangedTo="0"/>
        <edge id="--981477#0" sampledSeconds="0.00" departed="0" arrived="0" entered="0" left="0" laneChangedFrom="0" laneChangedTo="0"/>
        <edge id="--981477#1" sampledSeconds="0.00" departed="0" arrived="0" entered="0" left="0" laneChangedFrom="0" laneChangedTo="0"/>
        <edge id="--981477#2" sampledSeconds="0.00" departed="0" arrived="0" entered="0" left="0" laneChangedFrom="0" laneChangedTo="0"/>
        <edge id="--981477#3" sampledSeconds="0.00" departed="0" arrived="0" entered="0" left="0" laneChangedFrom="0" laneChangedTo="0"/>
        <edge id="--981478" sampledSeconds="0.00" departed="0" arrived="0" entered="0" left="0" laneChangedFrom="0" laneChangedTo="0"/>
        <edge id="--981481#0" sampledSeconds="0.00" departed="0" arrived="0" entered="0" left="0" laneChangedFrom="0" laneChangedTo="0"/>
        <edge id="--981481#1" sampledSeconds="0.00" departed="0" arrived="0" entered="0" left="0" laneChangedFrom="0" laneChangedTo="0"/>
        <edge id="--981481#2" sampledSeconds="0.00" departed="0" arrived="0" entered="0" left="0" laneChangedFrom="0" laneChangedTo="0"/>
        <edge id="--981489#0" sampledSeconds="0.00" departed="0" arrived="0" entered="0" left="0" laneChangedFrom="0" laneChangedTo="0"/>
        <edge id="--981489#1" sampledSeconds="0.00" departed="0" arrived="0" entered="0" left="0" laneChangedFrom="0" laneChangedTo="0"/>
        <edge id="--981489#2" sampledSeconds="0.00" departed="0" arrived="0" entered="0" left="0" laneChangedFrom="0" laneChangedTo="0"/>
        <edge id="--981492" sampledSeconds="0.00" departed="0" arrived="0" entered="0" left="0" laneChangedFrom="0" laneChangedTo="0"/>
        <edge id="--981493#0" sampledSeconds="0.00" departed="0" arrived="0" entered="0" left="0" laneChangedFrom="0" laneChangedTo="0"/>
        <edge id="--981493#1" sampledSeconds="0.00" departed="0" arrived="0" entered="0" left="0" laneChangedFrom="0" laneChangedTo="0"/>
        <edge id="--981493#2" sampledSeconds="0.00" departed="0" arrived="0" entered="0" left="0" laneChangedFrom="0" laneChangedTo="0"/>
        <edge id="--981493#3" sampledSeconds="0.00" departed="0" arrived="0" entered="0" left="0" laneChangedFrom="0" laneChangedTo="0"/>
        <edge id="--981493#4" sampledSeconds="0.00" departed="0" arrived="0" entered="0" left="0" laneChangedFrom="0" laneChangedTo="0"/>
        <edge id="--981507" sampledSeconds="0.00" departed="0" arrived="0" entered="0" left="0" laneChangedFrom="0" laneChangedTo="0"/>
        <edge id="--981525" sampledSeconds="36.12" traveltime="1.60" density="0.54" occupancy="0.14" waitingTime="0.00" speed="24.41" departed="0" arrived="0" entered="20" left="20" laneChangedFrom="1" laneChangedTo="1"/>
        <edge id="--981528#0" sampledSeconds="53.98" traveltime="13.27" density="0.11" occupancy="0.02" waitingTime="0.00" speed="22.05" departed="0" arrived="0" entered="4" left="4" laneChangedFrom="0" laneChangedTo="0"/>
        <edge id="--981528#1" sampledSeconds="5.08" traveltime="0.75" density="0.41" occupancy="0.07" waitingTime="0.00" speed="9.63" departed="0" arrived="0" entered="4" left="4" laneChangedFrom="0" laneChangedTo="0"/>
        <edge id="--981543" sampledSeconds="0.00" departed="0" arrived="0" entered="0" left="0" laneChangedFrom="0" laneChangedTo="0"/>
        <edge id="--981558" sampledSeconds="0.00" departed="0" arrived="0" entered="0" left="0" laneChangedFrom="0" laneChangedTo="0"/>
        <edge id="--981579#0" sampledSeconds="719.90" traveltime="7.00" density="149.91" occupancy="37.48" waitingTime="643.00" speed="0.40" departed="0" arrived="0" entered="37" left="37" laneChangedFrom="11" laneChangedTo="11"/>
        <edge id="--981579#1" sampledSeconds="46.47" traveltime="20.49" density="0.73" occupancy="0.18" waitingTime="34.00" speed="1.82" departed="0" arrived="0" entered="2" left="2" laneChangedFrom="1" laneChangedTo="1"/>
        <edge id="--981579#2" sampledSeconds="17.10" traveltime="4.63" density="1.69" occupancy="0.42" waitingTime="11.00" speed="1.28" departed="0" arrived="0" entered="2" left="2" laneChangedFrom="1" laneChangedTo="1"/>
        <edge id="--981588#0" sampledSeconds="406.50" traveltime="24.55" density="1.67" occupancy="0.42" waitingTime="218.00" speed="5.81" departed="0" arrived="0" entered="16" left="16" laneChangedFrom="6" laneChangedTo="6"/>
        <edge id="--981588#1" sampledSeconds="558.36" traveltime="48.97" density="2.39" occupancy="0.60" waitingTime="433.00" speed="2.79" departed="0" arrived="0" entered="11" left="11" laneChangedFrom="10" laneChangedTo="10"/>
        <edge id="--981588#2" sampledSeconds="6.39" traveltime="0.20" density="1.44" occupancy="0.36" waitingTime="0.00" speed="13.09" departed="0" arrived="0" entered="11" left="11" laneChangedFrom="0" laneChangedTo="0"/>
        <edge id="--981588#3" sampledSeconds="32.31" traveltime="2.54" density="12.28" occupancy="3.07" waitingTime="28.00" speed="0.61" departed="0" arrived="0" entered="3" left="3" laneChangedFrom="0" laneChangedTo="0"/>
        <edge id="--981588#4" sampledSeconds="87.78" traveltime="42.79" density="0.26" occupancy="0.07" waitingTime="55.00" speed="4.57" departed="0" arrived="0" entered="2" left="2" laneChangedFrom="1" laneChangedTo="1"/>
        <edge id="--981597" sampledSeconds="0.00" departed="0" arrived="0" entered="0" left="0" laneChangedFrom="0" laneChangedTo="0"/>
        <edge id="--981602" sampledSeconds="368.41" traveltime="17.26" density="3.45" occupancy="0.86" waitingTime="233.00" speed="3.62" departed="0" arrived="0" entered="20" left="18" laneChangedFrom="9" laneChangedTo="9"/>
        <edge id="--981603" sampledSeconds="0.00" departed="0" arrived="0" entered="0" left="0" laneChangedFrom="0" laneChangedTo="0"/>